ITEM: TIMESTEP
1320000
ITEM: NUMBER OF ATOMS
10752
ITEM: BOX BOUNDS pp pp pp
1.4089166720235069e-01 5.1881097026587760e+01
2.1354805772561464e-01 7.8628097527266689e+01
5.8561495130484320e-01 6.2600367726161984e+01
ITEM: ATOMS id type x y z vx vy vz c_EnergyKinAtom c_EnergyPotAtom c_ComputeNeighbor
3 1 1.65197 1.39624 3.16144 -0.468873 0.433917 0.0130105 0.00193016 -6.63515 11
7 1 4.89989 1.34977 3.16184 -0.414627 -0.0445645 -0.450835 0.00178294 -6.63161 12
8 1 3.272 4.17503 3.17957 0.123936 -0.0224648 0.116909 0.00013961 -6.6354 11
12 1 6.48743 4.15792 3.18996 -0.131514 0.0181138 0.148584 0.000187681 -6.63147 12
5 1 3.25679 0.417889 0.612176 0.502532 -0.181108 -0.719815 0.00379829 -6.63289 10
167 1 9.75953 17.2336 10.9231 0.252107 0.546452 -0.315172 0.000332172 -6.63091 6
6 1 4.8817 3.23091 0.614601 -0.328664 -0.0386844 -0.0436115 0.000526715 -6.63296 11
9 1 6.50664 0.421929 0.606184 -0.708154 -0.168818 0.276804 0.00286762 -6.63147 10
11 1 8.13155 1.3654 3.15939 -0.0295891 0.100967 -0.070702 7.59619e-05 -6.63208 11
15 1 11.3522 1.33344 3.20296 -0.194407 0.151084 -0.518971 0.0015598 -6.63247 10
16 1 9.73387 4.17436 3.17782 0.170109 0.153754 -0.291714 0.000650836 -6.6364 12
14 1 11.3388 3.21859 0.609837 0.243304 -0.141517 0.0456633 0.000384377 -6.63054 10
2692 1 12.9636 4.1323 3.16236 -0.821626 -0.18524 -0.121653 0.00342346 -6.63511 9
10 1 8.10685 3.21483 0.620832 0.508366 -0.344303 -0.180718 0.00193651 -6.63112 11
2745 1 12.9859 0.439709 5.77589 0.218339 0.307779 0.242452 0.000951061 -6.62786 9
19 1 1.63152 6.96283 3.15563 0.0883511 -0.585396 -0.425701 0.00251361 -6.63733 10
23 1 4.89371 6.97606 3.15835 0.35031 0.22383 -0.119512 0.000884488 -6.63149 11
24 1 3.26318 9.76284 3.15801 0.325927 0.216095 -0.561052 0.00221101 -6.6369 10
28 1 6.48586 9.7752 3.16992 -0.18668 0.221565 0.11551 0.00045989 -6.63024 11
77 1 3.28499 6.06104 5.73234 0.0689625 -0.119998 0.170175 0.000227456 -6.63532 12
2849 1 12.9769 17.2138 10.9303 0.37134 0.108184 0.251426 0.00187755 -6.63442 6
81 1 6.5022 6.01744 5.7584 0.308045 -0.0946353 0.2273 0.000735164 -6.6333 12
21 1 3.24237 6.01971 0.599199 -0.167861 0.221913 -0.0110655 0.000366584 -6.63185 8
160 1 9.74064 15.3412 13.4999 0.0631937 0.328302 -0.736141 0.00152003 -6.63891 10
25 1 6.49619 6.01253 0.613376 0.249999 -0.375778 -0.0260062 0.000966202 -6.62849 11
2708 1 12.977 9.74666 3.18324 -0.166928 0.257997 -0.501002 0.00163297 -6.63312 12
27 1 8.11354 6.9802 3.1753 0.123247 -0.0846409 -0.273167 0.000458431 -6.63589 11
31 1 11.3634 6.96664 3.17582 0.373925 0.0760049 -0.11323 0.000748897 -6.64258 12
32 1 9.73803 9.77523 3.17126 0.211295 -0.263751 0.0421389 0.000548306 -6.63262 10
2836 1 12.9561 15.3503 13.5196 -0.235092 0.343358 -0.418613 0.00832339 -6.63129 9
2705 1 12.9948 6.03834 0.614583 0.301426 -0.136994 -0.46906 0.00155833 -6.63135 10
166 1 8.13014 18.1851 13.5198 0.200916 -0.209031 0.52082 0.000301968 -6.63969 6
168 1 11.3357 18.155 13.5264 0.0784401 0.174968 -0.340412 0.00034925 -6.63634 5
35 1 1.68751 12.5629 3.17646 -0.25118 0.443089 -0.141688 0.00132127 -6.64114 11
39 1 4.9102 12.5605 3.17077 0.107658 -0.307007 -0.460722 0.00150381 -6.63331 12
164 1 4.89028 18.1802 13.5224 -0.123356 0.223862 -0.333272 0.000347331 -6.62902 9
152 1 3.26755 15.3756 13.5176 0.328757 0.0417428 -0.158432 0.00149381 -6.63377 9
37 1 3.27025 11.6336 0.588639 0.0719703 0.422282 0.154972 0.000981011 -6.63011 7
43 1 8.1413 12.5545 3.18434 -0.0906595 0.164104 -0.0128237 0.00016694 -6.63842 12
47 1 11.3758 12.5431 3.17785 0.0870127 -0.163771 0.0130714 0.000163391 -6.62843 12
162 1 1.6583 18.1445 13.5214 -0.206309 -0.470053 1.50834e-05 0.000145851 -6.634 8
46 1 11.3442 14.4433 0.611046 -0.0306446 0.0854584 -0.0322571 4.38828e-05 -6.63778 11
2721 1 12.9704 11.6356 0.594786 -0.59406 0.393837 -0.225718 0.00264241 -6.635 9
163 1 3.25618 17.2372 10.9305 -0.267855 -0.127785 -0.188295 0.000621486 -6.6304 12
40 1 3.25513 15.3691 3.16833 0.425873 -0.357488 0.255282 0.00176961 -6.63346 10
50 1 1.62894 18.1582 3.17337 0.0268133 0.124749 0.115488 0.000140018 -6.63427 10
52 1 4.88058 18.1814 3.19211 -0.491473 -0.00072349 0.311847 0.0016016 -6.63435 11
44 1 6.4988 15.3686 3.18098 -0.00142199 0.0204111 0.0330801 7.15214e-06 -6.63568 11
53 1 6.51972 17.2417 0.589764 -0.0808684 0.464703 -0.745437 0.00367866 -6.62937 10
51 1 3.2923 17.2292 0.604439 0.283374 0.0397404 0.484853 0.00149839 -6.63385 7
48 1 9.72945 15.3893 3.18913 -0.516214 -0.301611 -0.23105 0.00194213 -6.63821 11
54 1 8.10192 18.1653 3.15361 -0.119651 -0.514612 0.337367 0.00185765 -6.62818 12
56 1 11.3561 18.1506 3.18507 0.0623652 0.346107 1.01893 0.00549268 -6.6376 12
2724 1 12.9579 15.3543 3.19103 0.104431 0.0534895 0.221314 0.000296626 -6.62544 11
2793 1 12.9756 17.236 5.75679 -0.429876 0.449477 0.341971 0.00238149 -6.6389 12
111 1 9.71372 17.2393 5.77771 -0.00231173 -0.0794446 0.139045 0.000121257 -6.63197 12
55 1 9.72275 17.236 0.605187 0.54719 -0.295594 0.20209 0.00202157 -6.6326 11
58 1 1.65375 3.25552 5.75262 0.0156782 -0.0941026 0.328922 0.000554475 -6.62911 12
62 1 4.8892 3.22266 5.77607 -0.341504 0.0666707 -0.0327535 0.000577412 -6.62964 12
59 1 1.63465 1.39117 8.36031 -0.165782 -0.412825 -0.715462 0.00335545 -6.63796 12
63 1 4.89542 1.38135 8.34806 0.265612 0.297211 -0.046316 0.000761242 -6.6337 12
64 1 3.2644 4.16485 8.33694 0.0405049 -0.797193 -0.351605 0.00359649 -6.63547 12
68 1 6.51425 4.17109 8.3412 0.140564 0.114226 0.0136415 0.000155964 -6.63201 12
65 1 6.49541 0.441174 5.74179 -0.220022 0.279012 0.315676 0.00106795 -6.63577 12
117 1 3.26578 0.448896 10.9272 0.478822 0.0607854 -0.0816481 0.00113282 -6.63611 12
61 1 3.26341 0.460353 5.79199 0.356495 0.173099 -0.0931522 0.00078346 -6.63916 12
66 1 8.11197 3.23179 5.76819 0.214233 0.197831 -0.121535 0.000471807 -6.62992 12
70 1 11.3401 3.21042 5.77757 -0.510084 0.355347 0.0897934 0.00186504 -6.63544 12
2748 1 12.9659 4.167 8.37038 0.0767879 -0.365491 -0.0956951 0.000702663 -6.63508 9
67 1 8.12145 1.38104 8.35028 -0.570694 -0.257527 0.277591 0.00221745 -6.63504 12
71 1 11.3595 1.3853 8.35633 0.154149 0.138481 0.0251778 0.000205983 -6.63649 11
72 1 9.75094 4.18124 8.35655 0.0515757 -0.572586 -0.163435 0.00168873 -6.63188 12
69 1 9.71513 0.440058 5.76542 -0.0205218 -0.455007 -0.109427 0.00103731 -6.63225 12
74 1 1.66001 8.83216 5.76062 0.0867461 -0.119056 -0.0716701 0.000126862 -6.62617 12
78 1 4.87047 8.85557 5.75831 0.201563 -0.191704 0.468802 0.00140475 -6.63891 12
75 1 1.66372 6.96568 8.32311 -0.364914 -0.0355463 0.286883 0.00102455 -6.6382 12
79 1 4.89166 6.96476 8.35868 0.353785 -0.223767 0.376401 0.00149816 -6.63635 12
80 1 3.26361 9.78507 8.35747 -0.342859 0.406156 -0.294286 0.00174496 -6.63264 12
84 1 6.51857 9.77368 8.35675 0.0765992 0.358711 0.568092 0.00216167 -6.62891 12
86 1 11.3568 8.81672 5.77562 0.105296 -0.407919 0.190325 0.00101028 -6.63521 12
85 1 9.71983 6.01491 5.75807 -0.022293 0.0813767 -0.0487148 4.48734e-05 -6.63259 12
82 1 8.13312 8.83065 5.74836 -0.159549 -0.0986284 0.460358 0.00116819 -6.63437 12
83 1 8.09725 6.99432 8.32313 0.246052 -0.228534 -0.0416525 0.000541302 -6.63224 12
87 1 11.3493 6.96834 8.34116 0.255485 -0.371365 -0.0345435 0.000966165 -6.62768 12
88 1 9.73708 9.7638 8.35347 -0.146196 -0.0684851 0.0243529 0.000126014 -6.631 12
2764 1 12.9545 9.76838 8.37272 -0.0870864 -0.26587 0.396804 0.00111435 -6.63599 12
2761 1 12.9538 6.0236 5.78747 -0.18163 0.159369 0.0222658 0.000278364 -6.63852 12
90 1 1.63596 14.4527 5.75605 0.106547 0.188525 0.561048 0.00170973 -6.63458 12
93 1 3.26409 11.6223 5.7778 -0.228879 -0.178294 -0.456195 0.00138175 -6.63042 12
97 1 6.49779 11.6227 5.76897 0.0202663 -0.0395516 0.299638 0.000433773 -6.63679 12
94 1 4.8679 14.4192 5.75273 -0.445307 0.0708697 0.214057 0.00117778 -6.63461 12
91 1 1.68515 12.5748 8.36211 0.0601636 0.133326 -0.0912642 0.000140519 -6.63678 12
95 1 4.89716 12.5591 8.38186 0.187169 0.554328 0.249367 0.0019122 -6.63262 12
149 1 3.26677 11.6656 10.9397 0.0602269 0.334812 0.191828 0.000721035 -6.63407 12
101 1 9.7621 11.6268 5.75723 0.682854 0.069645 0.0403317 0.00223493 -6.63124 12
102 1 11.3634 14.446 5.7459 -0.0481162 0.473577 0.0836331 0.00110424 -6.6379 12
98 1 8.1112 14.4085 5.78031 0.295906 -0.0632214 -0.320293 0.00091779 -6.62956 12
99 1 8.14307 12.5683 8.3516 -0.292248 -0.341292 -0.287722 0.00134575 -6.63178 12
103 1 11.3686 12.5842 8.34267 -0.0390167 -0.572826 0.0428121 0.00156705 -6.63808 12
2777 1 12.9805 11.618 5.76051 -0.201955 -0.00948011 0.100291 0.000240783 -6.63443 12
154 1 8.0974 14.4203 10.9327 -0.328097 0.133085 0.0476086 0.000603332 -6.62901 12
109 1 6.48089 17.1868 5.73972 0.101441 -0.102817 0.0413889 0.000106719 -6.62857 12
107 1 3.2734 17.2279 5.75377 0.311768 -0.223207 0.322714 0.00118735 -6.63426 12
96 1 3.29213 15.3745 8.35868 0.388045 -0.0189845 -0.0730404 0.000738764 -6.6401 11
106 1 1.64234 18.1671 8.32907 0.247145 0.0117695 0.129391 0.00036855 -6.63258 9
108 1 4.89952 18.1666 8.34508 -0.301956 0.182509 0.170821 0.000726436 -6.63515 12
100 1 6.52633 15.3587 8.32433 0.128446 0.413624 0.0454772 0.000896547 -6.62768 12
165 1 6.50993 17.2404 10.9138 0.275155 -0.316759 0.352604 0.00141998 -6.63896 10
2780 1 12.9758 15.3713 8.34486 -0.037278 -0.0909416 -0.0191036 4.73916e-05 -6.63485 11
104 1 9.70724 15.4122 8.35397 -0.148685 0.264656 -0.412591 0.00124037 -6.63365 10
110 1 8.11656 18.1903 8.32278 -0.0735631 0.149695 -0.264296 0.000461733 -6.62772 11
112 1 11.3421 18.1799 8.34789 0.211513 0.453811 0.0803229 0.00121556 -6.63364 11
114 1 1.65198 3.24028 10.9271 0.18312 0.104637 -0.083248 0.000243042 -6.63403 12
118 1 4.87726 3.22343 10.9239 0.159498 -0.114761 -0.591139 0.00183447 -6.63957 12
115 1 1.67089 1.39655 13.5087 -0.230909 0.352501 -0.152256 0.000949051 -6.63049 10
119 1 4.88555 1.36258 13.5381 -0.257467 0.134742 0.0224498 0.000401582 -6.63673 10
120 1 3.27611 4.17069 13.5466 -0.0451259 -0.0848494 0.4638 0.00106056 -6.63621 11
121 1 6.51776 0.435816 10.959 -0.395602 -0.370579 -0.155004 0.00150262 -6.63442 12
124 1 6.50785 4.15116 13.5176 -0.363383 0.670135 0.292536 0.00315175 -6.63794 10
156 1 6.51427 15.3911 13.5323 -0.122746 0.357419 -0.0209289 0.000405029 -6.6368 11
155 1 8.15111 12.5604 13.5066 -0.0842341 0.132733 0.0750729 0.000927233 -6.63663 12
122 1 8.12467 3.21434 10.9267 -0.0816955 -0.482442 -0.450815 0.0020926 -6.63359 12
2801 1 12.9528 0.449883 10.9422 0.208291 0.779406 0.160274 0.00319827 -6.63421 9
2804 1 12.965 4.14641 13.5168 0.254483 0.0966341 -0.0207948 0.000352341 -6.63636 11
126 1 11.351 3.24723 10.9414 0.265877 0.217528 0.41021 0.00135335 -6.62305 11
123 1 8.12772 1.33764 13.5228 0.236725 -0.407029 -0.140466 0.00114138 -6.63394 11
127 1 11.3479 1.36383 13.5027 -0.177584 -0.120405 0.11016 0.000274983 -6.63448 12
128 1 9.72847 4.14705 13.5156 -0.185611 0.0780171 -0.344957 0.000754172 -6.63409 11
159 1 11.3539 12.5565 13.5397 -0.104281 0.127511 0.459837 0.00328543 -6.63804 12
125 1 9.72907 0.446027 10.9382 0.0629623 0.205092 -0.260676 0.00053882 -6.62491 12
158 1 11.3622 14.4131 10.9444 -0.231568 -0.314081 0.594182 7.91165e-05 -6.62608 9
133 1 3.27349 6.01917 10.9303 -0.383972 -0.193492 0.105626 0.000926706 -6.63045 12
134 1 4.87349 8.82549 10.9123 -0.294411 0.324405 0.0305358 0.000911665 -6.63242 12
130 1 1.65348 8.83651 10.9284 -0.00526126 0.247936 -0.646987 0.00226956 -6.6411 12
137 1 6.50292 6.04503 10.9382 -0.0296386 0.24769 0.0734891 0.000319707 -6.63569 12
131 1 1.64911 6.96692 13.5069 -0.0416102 0.249042 -0.581389 0.00189929 -6.63574 12
135 1 4.88964 6.9743 13.4981 -0.0608866 -0.0792451 0.0261527 5.04452e-05 -6.6306 12
136 1 3.29098 9.76567 13.5221 -0.426293 -0.522794 -0.246525 0.00243843 -6.63353 12
140 1 6.49386 9.76341 13.5014 0.0886867 -0.493265 -0.540011 0.00256595 -6.63969 12
181 1 6.51149 6.03331 16.0757 0.204916 0.274621 -0.080908 0.000585972 -6.63115 12
2820 1 12.9545 9.78453 13.4943 -0.241858 0.196337 -0.0271683 0.000462247 -6.63282 12
142 1 11.335 8.82361 10.9387 0.00352685 0.0684894 -0.214722 0.00024019 -6.62584 12
141 1 9.74673 6.02546 10.9264 0.294627 -0.127001 0.337135 0.00102392 -6.63688 12
2817 1 12.9529 6.05495 10.9447 0.401849 -0.0436157 -0.771183 0.00358385 -6.63312 12
138 1 8.1125 8.83099 10.9194 0.209634 -0.184056 0.227371 0.000612289 -6.63342 12
144 1 9.72537 9.77106 13.5268 -0.362399 -0.209325 -0.45573 0.00180982 -6.63685 12
143 1 11.3623 6.99156 13.5271 0.239784 0.135825 -0.14186 0.000454153 -6.6375 12
139 1 8.12572 6.95471 13.5171 0.567638 -0.375235 0.189216 0.00235808 -6.63588 12
150 1 4.91149 14.4488 10.9411 -0.302437 0.287422 -0.359428 0.00143365 -6.63327 12
146 1 1.65939 14.4552 10.9582 -0.725481 -0.689457 0.201336 0.00492689 -6.62873 12
151 1 4.90573 12.5723 13.5208 0.201524 0.124017 0.128573 0.000342842 -6.63216 12
147 1 1.63629 12.5882 13.5114 0.0552452 0.211995 -0.316689 0.000700999 -6.63021 12
187 1 3.29703 11.6553 16.058 -0.241644 -0.490926 0.171993 0.00155521 -6.63141 12
153 1 6.50965 11.6444 10.937 -0.141125 0.439586 -0.00259057 0.00100768 -6.62837 12
157 1 9.74071 11.6312 10.9341 0.698019 -0.248294 -0.226692 0.00283768 -6.63507 12
2833 1 12.9596 11.6414 10.9321 -0.391481 0.157125 0.000657624 0.000841213 -6.62575 12
178 1 1.66059 8.87135 16.0871 -0.495652 -0.165988 0.0759361 0.00149205 -6.63012 8
189 1 6.51844 11.6308 16.0715 0.29419 0.239788 0.140453 0.00238883 -6.63551 12
190 1 8.11966 14.4484 16.0855 -0.412445 -0.652139 0.267595 0.00112787 -6.62276 12
2689 1 12.9477 0.433121 0.612104 -0.143347 0.181131 0.482136 0.000143472 -6.62751 4
13 1 9.75336 0.392852 0.593017 0.273221 0.129844 -0.0851532 0.000677208 -6.6337 1
2737 1 12.9559 17.2484 0.611112 -0.20258 0.452809 0.65259 0.000583971 -6.63304 5
38 1 4.87988 14.4347 0.589553 -0.120553 0.192418 0.255936 0.000480419 -6.63386 6
197 1 1.64344 1.40257 18.6876 0.0518366 -0.508864 0.572602 0.00278679 -6.63129 10
199 1 4.89879 1.36277 18.7064 0.651128 -0.000170062 0.127639 0.00208126 -6.63145 10
200 1 3.25259 4.18115 18.6889 0.180156 -0.108158 0.364127 0.000835526 -6.63244 11
202 1 6.51789 4.17661 18.6855 0.206779 0.583098 0.275997 0.00216954 -6.6311 10
170 1 1.6468 3.24884 16.1157 -0.716718 -0.214728 0.479186 0.00373183 -6.62976 7
173 1 6.50358 0.428233 16.1101 -0.66428 -0.70568 0.26733 0.00477801 -6.63706 6
229 1 3.25418 0.448293 21.2812 0.514653 0.0564322 -0.06444 0.00128681 -6.63259 12
201 1 8.11764 1.31985 18.677 -0.707124 -0.237986 -0.104565 0.00268322 -6.63569 10
203 1 11.369 1.34453 18.6826 -0.403569 0.046725 -0.237023 0.00104584 -6.63312 11
204 1 9.7347 4.16062 18.698 -0.299403 0.223527 0.411338 0.00145983 -6.63014 11
2886 1 12.9524 4.16719 18.6642 -0.0468682 0.13936 -0.115922 0.000165721 -6.63685 12
2857 1 12.9902 0.4332 16.0933 -0.208059 -0.0969548 0.133066 0.000332783 -6.63414 8
176 1 11.338 3.2033 16.0963 0.385694 0.158383 0.0757103 0.000848923 -6.63007 10
205 1 1.63954 6.99642 18.6595 0.17344 0.170964 -0.510598 0.00151285 -6.63541 11
207 1 4.87998 6.95657 18.6718 -0.311413 -0.0119786 0.00298507 0.000459171 -6.63457 11
208 1 3.30182 9.77667 18.6597 -0.660598 0.234728 0.191701 0.00249716 -6.636 10
210 1 6.51338 9.78653 18.6942 0.503403 0.0897786 -0.0273135 0.00123961 -6.62692 12
180 1 4.89604 8.8446 16.1091 0.382959 0.252793 0.0701766 0.00101868 -6.63082 5
242 1 1.65712 8.84527 21.2761 0.155587 0.069169 0.0436792 0.000146073 -6.63639 12
246 1 4.87817 8.82863 21.2509 -1.07418 -0.233365 -0.144559 0.00581093 -6.63236 12
3017 1 13.0022 17.262 26.4563 0.405408 -0.0594529 -0.326608 0.00131888 -6.63025 7
179 1 3.29161 6.05023 16.096 0.0546844 -0.175907 -0.294955 0.000571687 -6.63191 9
209 1 8.10747 6.96294 18.6839 -0.254186 -0.190029 -0.00272276 0.000476181 -6.6306 12
211 1 11.3444 6.98307 18.7029 -0.510405 -0.440266 -0.239572 0.00241919 -6.63444 12
212 1 9.74261 9.7976 18.6894 -0.168794 -0.25434 -0.672892 0.00258097 -6.62973 12
2894 1 12.9933 9.7658 18.7037 -0.218282 -0.108215 0.243543 0.000560997 -6.6356 12
253 1 9.73734 6.0039 21.2728 -0.170733 0.00551161 0.361171 0.000754602 -6.6343 12
182 1 8.12505 8.81988 16.1359 0.909641 0.0930247 0.0267932 0.00395594 -6.63665 10
2865 1 12.9727 6.01536 16.0971 -0.0507182 0.0621713 -0.129643 0.000109886 -6.63218 11
184 1 11.374 8.83016 16.1297 -0.298959 -0.350078 0.247334 0.00129107 -6.63769 12
183 1 9.74175 6.01662 16.1153 0.303403 -0.413435 -0.278044 0.00160867 -6.63983 10
213 1 1.6875 12.5554 18.6989 0.44013 -0.523002 -0.0147727 0.00220987 -6.6445 11
215 1 4.9177 12.5705 18.6669 -0.179128 -0.307758 0.0679909 0.000621291 -6.63983 10
328 1 9.75296 15.3478 29.0155 -0.317669 0.0733485 -0.813194 0.000774214 -6.63684 9
188 1 4.89018 14.4428 16.0951 -0.143479 -0.00829925 -0.179372 0.000249743 -6.62892 9
186 1 1.68049 14.442 16.1121 0.385225 0.495401 -0.426287 0.00272079 -6.6386 10
217 1 8.13505 12.5951 18.6944 -0.197768 -0.0394448 -0.261035 0.00051437 -6.63045 12
219 1 11.346 12.5706 18.6891 0.266251 -0.439814 0.256647 0.00156094 -6.62775 12
270 1 11.3555 14.4237 21.2726 0.335774 0.413331 -0.224419 0.0015787 -6.63445 12
269 1 9.74543 11.6295 21.2627 0.0702755 0.0871403 -0.420168 0.000893817 -6.6328 12
191 1 9.74129 11.6342 16.1113 -0.634057 -0.310364 -0.0928996 0.00239669 -6.63195 10
334 1 8.1099 18.1596 29.0145 -0.480693 -0.189197 0.288017 0.00315316 -6.63691 9
2873 1 12.9669 11.6429 16.1015 -0.081828 -0.198297 0.772874 0.00304135 -6.63269 10
216 1 3.30527 15.3804 18.7143 -0.54382 -0.108722 -0.0506687 0.00146608 -6.63541 11
221 1 1.66029 18.1908 18.6842 -0.233669 -0.291138 0.447642 0.0016061 -6.63592 8
222 1 4.89413 18.1991 18.6969 -0.185274 0.138375 -0.447249 0.00119841 -6.63387 12
218 1 6.50544 15.3876 18.6787 -0.0788922 -0.222249 -0.32164 0.000751983 -6.63175 12
195 1 6.48531 17.2466 16.1125 -0.124659 0.110508 -0.354681 0.000725888 -6.63414 11
220 1 9.73498 15.3545 18.6728 0.0287456 0.034688 0.0428007 1.82545e-05 -6.63429 12
223 1 8.13914 18.1892 18.6904 0.19317 0.0951992 -0.275202 0.000577274 -6.63075 12
224 1 11.3514 18.1491 18.6856 0.093706 -0.29803 0.0512531 0.000473821 -6.63404 12
279 1 9.73869 17.2232 21.2818 0.201306 -0.110797 0.110201 0.000307014 -6.63515 12
2902 1 12.9819 15.3717 18.6764 -0.171524 0.185931 0.0310099 0.000307052 -6.63838 12
2961 1 12.9784 17.2302 21.2665 0.720661 0.129114 0.13523 0.00262042 -6.63338 12
226 1 1.62831 3.22813 21.2694 -0.00926957 0.0538721 -0.572346 0.00156271 -6.63628 12
230 1 4.89463 3.22582 21.2374 0.176244 -0.163809 0.127926 0.000351055 -6.63033 12
227 1 1.63491 1.38177 23.8607 -0.0966832 -0.0729361 0.190577 0.000241033 -6.63485 12
231 1 4.89206 1.38153 23.8475 -0.28318 0.28167 -0.602217 0.0024686 -6.63417 12
232 1 3.2529 4.16525 23.839 0.467467 0.218958 0.193512 0.00143671 -6.63723 12
282 1 1.67618 3.22545 26.4505 0.075926 -0.366808 0.533379 0.00200821 -6.62888 12
289 1 6.5264 0.437817 26.4148 -0.0566971 -0.0783839 -0.0858187 7.90576e-05 -6.63113 12
233 1 6.48187 0.425175 21.2936 -0.308022 -0.37469 -0.219309 0.00133957 -6.63292 12
236 1 6.50481 4.17704 23.8262 0.239046 -0.192175 0.263979 0.000774147 -6.63276 12
286 1 4.88474 3.22014 26.4238 0.341648 -0.196853 0.0716698 0.000759264 -6.6292 12
285 1 3.28808 0.432603 26.4357 0.157997 -0.394836 -0.408093 0.00164228 -6.63672 11
237 1 9.73518 0.452955 21.2651 -0.187346 -0.293526 0.168245 0.000707034 -6.63497 12
2913 1 12.9774 0.414381 21.287 0.171325 -0.41197 -0.640769 0.00288206 -6.63684 12
234 1 8.10434 3.22058 21.2576 -0.0548046 -0.48412 0.335323 0.00165371 -6.62969 12
238 1 11.3371 3.21653 21.2626 -0.794602 -0.746676 0.285671 0.00600621 -6.63182 12
235 1 8.11969 1.3507 23.8543 0.324806 -0.229396 0.365298 0.00137833 -6.62947 12
239 1 11.3731 1.35021 23.8663 -0.233718 -0.299644 -0.0323591 0.000687628 -6.63069 12
240 1 9.71585 4.14017 23.8516 -0.414327 -0.168423 -0.513583 0.00219255 -6.62913 12
2916 1 12.956 4.16692 23.8749 -0.207736 0.0467044 0.468444 0.00125169 -6.63755 12
245 1 3.27461 6.05183 21.2719 0.388271 -0.67786 -0.234704 0.00314527 -6.63934 12
243 1 1.64194 6.99386 23.8364 0.176766 0.0566928 0.143274 0.000259946 -6.62604 12
247 1 4.89541 6.95713 23.8471 0.367963 0.0650723 0.163229 0.000786041 -6.63644 12
248 1 3.28202 9.76707 23.8411 -0.0849784 -0.000434286 -0.0780722 6.29531e-05 -6.63445 12
249 1 6.51025 6.02271 21.2457 -0.220853 -0.0058401 0.251871 0.000530641 -6.62796 12
252 1 6.4854 9.77626 23.8496 0.61357 -0.197248 -0.197883 0.00214874 -6.63119 12
298 1 1.62716 8.84051 26.431 -0.499463 0.131049 -0.222984 0.00149554 -6.63478 12
301 1 3.24454 6.03764 26.4361 0.115011 -0.238797 -0.281907 0.000707794 -6.64171 12
250 1 8.10933 8.8329 21.259 0.292651 0.326912 -0.35228 0.00149676 -6.63922 12
254 1 11.3457 8.80253 21.292 0.742217 -0.00692799 0.143385 0.00270165 -6.63863 12
251 1 8.12107 6.95342 23.8499 -0.095141 0.251083 0.255672 0.000649835 -6.63666 12
255 1 11.3461 6.95338 23.86 0.26855 0.202707 0.108889 0.00059123 -6.62982 12
256 1 9.74176 9.73807 23.8743 0.153227 0.062799 -0.230703 0.000381242 -6.63222 12
2929 1 12.9865 6.01509 21.2851 0.473339 0.11891 -0.0988838 0.00117223 -6.64123 12
2932 1 12.9921 9.75512 23.8333 0.403091 0.245308 -0.048047 0.0010635 -6.63421 12
306 1 8.1137 8.82631 26.4295 0.0364958 0.14408 0.0591283 0.00012096 -6.63824 12
262 1 4.89706 14.4345 21.2716 0.126957 0.193099 -0.245105 0.000536468 -6.62928 12
265 1 6.50413 11.6353 21.2612 0.170179 -0.42064 0.127275 0.00104994 -6.62915 12
261 1 3.2639 11.6515 21.292 -0.189261 -0.095873 -0.249522 0.000507114 -6.63018 12
258 1 1.66526 14.4265 21.2651 -0.0787024 -0.214296 0.164731 0.000374658 -6.64008 12
259 1 1.65623 12.5369 23.8598 -0.03916 -0.194557 -0.194301 0.000364662 -6.62792 12
263 1 4.90316 12.574 23.8474 0.346107 0.161484 -0.383357 0.00138431 -6.63272 12
317 1 3.25942 11.651 26.4347 0.055665 0.203304 -0.174758 0.000354417 -6.63588 12
321 1 6.51009 11.6311 26.4506 0.311301 0.194347 -0.0324821 0.000641662 -6.63387 12
318 1 4.91676 14.4324 26.4342 0.0576118 -0.0374791 -0.361439 0.000639903 -6.62827 12
314 1 1.65127 14.434 26.4109 0.165581 -0.073104 -0.296758 0.000571188 -6.63104 12
2945 1 12.9808 11.6417 21.2713 0.0147534 -0.0886688 -0.0828662 7.06579e-05 -6.62809 12
266 1 8.11151 14.4331 21.2619 0.248067 0.0936539 0.0529394 0.000345621 -6.63648 12
267 1 8.12666 12.5569 23.8496 -0.238301 0.0356776 -0.102976 0.000324601 -6.64245 12
271 1 11.3695 12.556 23.8259 0.426804 0.294042 -0.13913 0.00136138 -6.63084 12
333 1 6.54588 17.2637 26.42 -0.820232 -0.707344 -0.0786057 0.00557494 -6.63607 12
277 1 6.49921 17.2574 21.2684 -0.253381 0.0306435 0.404122 0.00107999 -6.63551 12
275 1 3.27767 17.2615 21.259 0.388114 0.572565 -0.307127 0.00270778 -6.63044 11
264 1 3.28582 15.3681 23.8338 -0.318675 0.38696 -0.00642824 0.00118814 -6.63688 11
274 1 1.64117 18.1656 23.8344 -0.201148 -0.13277 -0.0152802 0.000275708 -6.63436 9
276 1 4.88587 18.1794 23.8265 0.14838 -0.137481 0.433583 0.00108214 -6.63692 12
331 1 3.28959 17.2469 26.4029 -0.14694 0.294427 -0.612078 0.00228293 -6.64245 12
268 1 6.50885 15.3685 23.8487 0.130673 -0.289203 0.233188 0.000733167 -6.63656 12
335 1 9.76743 17.2212 26.447 0.128406 0.157967 -0.157455 0.00031311 -6.6345 11
2948 1 12.9568 15.3515 23.8383 -0.65463 0.354002 -0.235759 0.00288104 -6.63612 12
272 1 9.76342 15.3759 23.8671 0.75909 0.0470006 0.24178 0.00301078 -6.62594 12
278 1 8.16141 18.1624 23.8388 0.322686 0.167371 0.254422 0.000930673 -6.63162 12
280 1 11.3679 18.1704 23.8571 -0.0850434 0.197989 0.579082 0.00180475 -6.62954 12
283 1 1.67186 1.34034 29.0299 -0.213214 0.368684 -0.148896 0.000962292 -6.62928 11
287 1 4.89638 1.35901 29.0033 0.144094 0.59336 -0.188505 0.00193053 -6.63366 10
288 1 3.28499 4.15015 29.0052 0.56688 0.202787 -0.169067 0.00184867 -6.6288 12
292 1 6.50478 4.14405 29.0109 -0.0552956 0.0818488 0.0188198 4.77983e-05 -6.6292 12
336 1 11.359 18.1723 29.0109 -0.0681775 0.172146 -0.183874 0.00263124 -6.637 6
340 1 4.87811 3.22572 31.5924 -0.0062013 0.369324 -0.275088 0.00100273 -6.63112 10
2972 1 12.9912 4.18809 29.0498 -0.616807 -0.16908 0.274032 0.00228866 -6.6315 10
2969 1 12.9711 0.447504 26.4319 -0.22213 -0.591168 0.391951 0.00261161 -6.6336 11
293 1 9.73292 0.426839 26.4312 0.357148 0.343042 0.187677 0.00132581 -6.63216 12
290 1 8.11237 3.22961 26.4262 0.358321 0.278755 0.293351 0.00138111 -6.63403 12
294 1 11.3651 3.24286 26.4299 -0.321455 0.29921 -0.193168 0.00108811 -6.632 12
291 1 8.12145 1.3697 29.0164 -0.26656 -0.20696 -0.0826043 0.000570638 -6.63118 12
295 1 11.3237 1.40219 29.0037 -0.178826 -0.226372 -0.0195139 0.000395224 -6.62792 10
296 1 9.75062 4.17723 29.0519 -0.356757 0.0352111 0.207971 0.000812007 -6.62966 10
3004 1 13.0092 15.3882 28.9967 -0.23078 0.583368 0.445772 0.000586037 -6.63179 9
302 1 4.90041 8.8173 26.436 0.393578 0.549053 -0.0988978 0.00220362 -6.63641 12
299 1 1.63801 6.96049 29.028 0.43362 -0.594184 0.28035 0.00292943 -6.63678 12
303 1 4.89312 6.97609 29.0173 0.182489 -0.699325 -0.170664 0.00260705 -6.63746 11
304 1 3.27766 9.75202 29.0015 0.300617 -0.00556562 0.305419 0.000868329 -6.63912 11
305 1 6.50942 5.99657 26.4272 0.2316 -0.249328 0.20468 0.000745489 -6.6304 12
308 1 6.50961 9.80128 29.0251 -0.167433 -0.196134 -0.0129225 0.000315169 -6.6303 12
320 1 3.2594 15.3606 28.9774 -0.0686363 -0.213598 -0.00117686 0.000712826 -6.6329 11
310 1 11.3671 8.85406 26.4143 -0.322043 0.172269 -0.0401668 0.0006382 -6.62915 12
309 1 9.741 5.9978 26.4437 -0.0383365 0.154686 -0.145593 0.00022027 -6.63749 12
2985 1 12.9711 6.04485 26.4604 -0.0897221 -0.251923 0.370257 0.00098615 -6.63409 12
312 1 9.75921 9.7627 29.0081 0.714486 -0.319654 0.190704 0.00306822 -6.63649 12
311 1 11.3585 6.98113 29.0191 -0.0797988 0.0196139 0.405014 0.00080738 -6.64023 12
307 1 8.12037 6.96311 29.0145 0.090633 -0.0535608 0.0102089 5.28864e-05 -6.63853 12
330 1 1.64654 18.1461 29.0056 0.00515891 0.19396 -0.265035 0.000718023 -6.62439 4
2988 1 12.9997 9.77134 29.0241 -0.403595 0.16255 0.314515 0.00136257 -6.64112 12
319 1 4.8908 12.5843 28.9943 -0.53679 -0.080491 -0.611534 0.00316068 -6.6329 11
315 1 1.64607 12.5778 29.0149 -0.140643 0.0432947 -0.0987447 0.000148464 -6.63258 12
332 1 4.88742 18.1691 29.0143 0.00603038 0.477708 -0.879591 0.00203609 -6.63815 11
355 1 3.28858 11.6427 31.5852 0.164895 0.0312399 0.0614349 0.000150993 -6.63723 10
325 1 9.77365 11.6151 26.4371 0.460986 0.0472719 0.185735 0.00117825 -6.62746 12
322 1 8.14283 14.4301 26.4162 -0.0552694 -0.563445 -0.406282 0.00229555 -6.63511 12
326 1 11.3809 14.4225 26.4047 0.160598 -0.307022 0.406308 0.00134796 -6.63154 12
3001 1 12.9721 11.6452 26.4135 0.51187 0.000752885 0.295755 0.00165213 -6.6301 12
359 1 9.75669 11.6118 31.5902 0.217516 0.0796207 -0.210668 0.000463439 -6.62978 11
327 1 11.3568 12.5818 29.0045 0.0225185 0.360069 -0.64229 0.0025655 -6.63154 12
323 1 8.15356 12.5698 29.0205 0.255922 0.0271704 -0.281353 0.000687326 -6.63006 11
324 1 6.501 15.3629 29.0016 -0.202549 -0.276764 0.0637777 0.000113943 -6.63504 10
3025 1 12.9451 0.440046 31.5683 0.11641 -0.0685642 -0.432831 0.000575281 -6.63852 6
344 1 11.3397 3.25349 31.5817 0.218917 -0.492282 -0.0383318 0.00473644 -6.63526 7
354 1 1.67861 14.4374 31.5818 0.664704 -0.31282 0.198943 0.000510038 -6.63036 8
196 1 9.74696 17.2432 16.1081 0.0376304 0.686347 -0.201313 0.000237957 -6.63046 8
2881 1 12.9469 17.2303 16.0992 -0.130492 -0.672921 0.267129 0.000482208 -6.63112 8
194 1 3.25102 17.2297 16.1019 -0.184433 0.0297834 -0.258307 0.000200759 -6.63564 7
172 1 4.88765 3.25063 16.1226 0.112715 -0.214064 0.164772 0.00279996 -6.63512 3
171 1 3.27442 0.443624 16.1054 -0.263886 -0.272297 0.228825 0.000321895 -6.62884 1
174 1 8.1319 3.22739 16.1052 0.0288213 -0.387371 0.737629 0.0016537 -6.63594 3
175 1 9.74309 0.389393 16.1129 -0.0715857 0.10234 -0.0337337 0.00362861 -6.63497 1
192 1 11.3585 14.4356 16.0914 -0.164441 -0.0808603 -0.531075 0.00129796 -6.63483 8
365 1 1.65923 1.33857 34.1691 0.0179587 -0.219388 -0.288017 0.000621208 -6.63005 12
367 1 4.90358 1.35079 34.1975 0.125212 0.34175 0.0415069 0.000634381 -6.63619 10
368 1 3.28713 4.14116 34.198 -0.229704 0.244082 -0.577886 0.00210978 -6.63987 11
370 1 6.51512 4.15341 34.2208 -0.648843 -0.294738 0.0264879 0.00240419 -6.63219 10
339 1 3.27023 0.416631 31.6056 -0.365214 0.294683 0.239382 0.00131195 -6.63494 7
397 1 3.24328 0.411921 36.7572 0.236629 -0.36504 -0.246186 0.00118115 -6.6335 12
338 1 1.68269 3.2253 31.6008 -0.165989 -0.320199 -0.11034 0.000672488 -6.63375 8
503 1 9.73332 17.2181 41.9371 0.0952803 0.191371 -0.122674 0.00097192 -6.63694 5
369 1 8.12062 1.3566 34.1786 0.289895 0.284194 -0.0031304 0.000779139 -6.62836 10
371 1 11.3706 1.36094 34.1932 -0.0507638 -0.172961 -0.349779 0.000731972 -6.63832 12
372 1 9.71477 4.16663 34.189 0.428639 -0.553126 0.357277 0.00291832 -6.64332 10
3054 1 12.9874 4.18865 34.1852 -0.344757 0.523844 0.154349 0.00197175 -6.63631 12
3172 1 12.9846 15.3574 44.5218 -0.0646227 0.44926 -0.0611424 0.00137913 -6.6362 6
343 1 9.72807 0.419307 31.6141 0.191739 0.496748 -0.578997 0.0029251 -6.6346 8
373 1 1.67378 6.9545 34.1957 0.00806146 -0.0191144 0.131867 8.42384e-05 -6.63108 12
375 1 4.88634 6.96993 34.1909 -0.0761393 -0.0368185 -0.298275 0.000454396 -6.63319 12
376 1 3.27322 9.76239 34.1713 0.0840068 0.246689 0.623136 0.00215667 -6.63238 11
378 1 6.51198 9.7623 34.1749 0.091949 -0.136556 -0.433468 0.00101637 -6.62914 12
410 1 1.69532 8.81784 36.7887 0.235202 -0.215231 0.0577316 0.000496266 -6.63032 12
347 1 3.25449 6.01585 31.606 -0.0695668 0.491721 -0.237926 0.00143351 -6.63478 10
349 1 6.49396 6.00618 31.6116 -0.261182 0.17426 0.326239 0.000969176 -6.63571 11
414 1 4.87682 8.79928 36.7544 -0.0418143 0.568825 0.0204457 0.00153983 -6.6349 12
346 1 1.65485 8.82301 31.6158 0.537253 0.321933 0.25295 0.00215693 -6.63825 8
377 1 8.11975 6.96705 34.2042 -0.424982 0.0498555 -0.175657 0.00101142 -6.63132 12
379 1 11.3533 6.97166 34.1788 0.384648 0.450999 0.2989 0.00208332 -6.63017 12
380 1 9.75123 9.77391 34.1688 0.639311 0.309754 -0.211579 0.00259736 -6.6368 12
418 1 8.11868 8.84288 36.7694 0.388743 0.0554886 0.150506 0.000836041 -6.63629 12
350 1 8.09218 8.82859 31.6003 0.385061 -0.311946 0.245924 0.00144686 -6.63454 10
421 1 9.72096 6.03345 36.7858 0.141844 -0.271092 -0.320205 0.00092723 -6.63257 12
351 1 9.71215 6.05229 31.6175 -0.359389 -0.26387 -0.104409 0.000991272 -6.63217 11