ITEM: TIMESTEP
25
ITEM: NUMBER OF ATOMS
10752
ITEM: BOX BOUNDS pp pp pp
2.6255668006835442e-01 5.1759432013720946e+01
3.9791636643818801e-01 7.8443729218553216e+01
3.1890172319826043e-01 6.2867080954259507e+01
ITEM: ATOMS id type x y z vx vy vz c_EnergyPotAtom
1 1 0.262557 0.398009 0.318902 0 0 0 -6.63396
2 1 1.87183 3.18536 0.318902 0 0 0 -6.63396
3 1 1.87183 1.32713 2.92508 0 0 0 -6.63396
4 1 0.262557 4.11448 2.92508 0 0 0 -6.63396
5 1 3.48111 0.398009 0.318902 0 0 0 -6.63396
6 1 5.09039 3.18536 0.318902 0 0 0 -6.63396
7 1 5.09039 1.32713 2.92508 0 0 0 -6.63396
8 1 3.48111 4.11448 2.92508 0 0 0 -6.63396
9 1 6.69967 0.398009 0.318902 0 0 0 -6.63396
10 1 8.30894 3.18536 0.318902 0 0 0 -6.63396
11 1 8.30894 1.32713 2.92508 0 0 0 -6.63396
12 1 6.69967 4.11448 2.92508 0 0 0 -6.63396
13 1 9.91822 0.398009 0.318902 0 0 0 -6.63396
14 1 11.5275 3.18536 0.318902 0 0 0 -6.63396
15 1 11.5275 1.32713 2.92508 0 0 0 -6.63396
16 1 9.91822 4.11448 2.92508 0 0 0 -6.63396
17 1 0.262557 5.97271 0.318902 0 0 0 -6.63396
18 1 1.87183 8.76006 0.318902 0 0 0 -6.63396
19 1 1.87183 6.90183 2.92508 0 0 0 -6.63396
20 1 0.262557 9.68918 2.92508 0 0 0 -6.63396
21 1 3.48111 5.97271 0.318902 0 0 0 -6.63396
22 1 5.09039 8.76006 0.318902 0 0 0 -6.63396
23 1 5.09039 6.90183 2.92508 0 0 0 -6.63396
24 1 3.48111 9.68918 2.92508 0 0 0 -6.63396
25 1 6.69967 5.97271 0.318902 0 0 0 -6.63396
26 1 8.30894 8.76006 0.318902 0 0 0 -6.63396
27 1 8.30894 6.90183 2.92508 0 0 0 -6.63396
28 1 6.69967 9.68918 2.92508 0 0 0 -6.63396
29 1 9.91822 5.97271 0.318902 0 0 0 -6.63396
30 1 11.5275 8.76006 0.318902 0 0 0 -6.63396
31 1 11.5275 6.90183 2.92508 0 0 0 -6.63396
32 1 9.91822 9.68918 2.92508 0 0 0 -6.63396
33 1 0.262557 11.5474 0.318902 0 0 0 -6.63396
34 1 1.87183 14.3348 0.318902 0 0 0 -6.63396
35 1 1.87183 12.4765 2.92508 0 0 0 -6.63396
37 1 3.48111 11.5474 0.318902 0 0 0 -6.63396
38 1 5.09039 14.3348 0.318902 0 0 0 -6.63396
39 1 5.09039 12.4765 2.92508 0 0 0 -6.63396
41 1 6.69967 11.5474 0.318902 0 0 0 -6.63396
42 1 8.30894 14.3348 0.318902 0 0 0 -6.63396
43 1 8.30894 12.4765 2.92508 0 0 0 -6.63396
45 1 9.91822 11.5474 0.318902 0 0 0 -6.63396
46 1 11.5275 14.3348 0.318902 0 0 0 -6.63396
47 1 11.5275 12.4765 2.92508 0 0 0 -6.63396
36 1 0.262557 15.2639 2.92508 0 0 0 -6.63396
40 1 3.48111 15.2639 2.92508 0 0 0 -6.63396
49 1 0.262557 17.1221 0.318902 0 0 0 -6.63396
50 1 1.87183 18.0512 2.92508 0 0 0 -6.63396
51 1 3.48111 17.1221 0.318902 0 0 0 -6.63396
52 1 5.09039 18.0512 2.92508 0 0 0 -6.63396
44 1 6.69967 15.2639 2.92508 0 0 0 -6.63396
48 1 9.91822 15.2639 2.92508 0 0 0 -6.63396
53 1 6.69967 17.1221 0.318902 0 0 0 -6.63396
54 1 8.30894 18.0512 2.92508 0 0 0 -6.63396
55 1 9.91822 17.1221 0.318902 0 0 0 -6.63396
56 1 11.5275 18.0512 2.92508 0 0 0 -6.63396
57 1 0.262557 0.398009 5.53125 0 0 0 -6.63396
58 1 1.87183 3.18536 5.53125 0 0 0 -6.63396
59 1 1.87183 1.32713 8.13742 0 0 0 -6.63396
60 1 0.262557 4.11448 8.13742 0 0 0 -6.63396
61 1 3.48111 0.398009 5.53125 0 0 0 -6.63396
62 1 5.09039 3.18536 5.53125 0 0 0 -6.63396
63 1 5.09039 1.32713 8.13742 0 0 0 -6.63396
64 1 3.48111 4.11448 8.13742 0 0 0 -6.63396
65 1 6.69967 0.398009 5.53125 0 0 0 -6.63396
66 1 8.30894 3.18536 5.53125 0 0 0 -6.63396
67 1 8.30894 1.32713 8.13742 0 0 0 -6.63396
68 1 6.69967 4.11448 8.13742 0 0 0 -6.63396
69 1 9.91822 0.398009 5.53125 0 0 0 -6.63396
70 1 11.5275 3.18536 5.53125 0 0 0 -6.63396
71 1 11.5275 1.32713 8.13742 0 0 0 -6.63396
72 1 9.91822 4.11448 8.13742 0 0 0 -6.63396
73 1 0.262557 5.97271 5.53125 0 0 0 -6.63396
74 1 1.87183 8.76006 5.53125 0 0 0 -6.63396
75 1 1.87183 6.90183 8.13742 0 0 0 -6.63396
76 1 0.262557 9.68918 8.13742 0 0 0 -6.63396
77 1 3.48111 5.97271 5.53125 0 0 0 -6.63396
78 1 5.09039 8.76006 5.53125 0 0 0 -6.63396
79 1 5.09039 6.90183 8.13742 0 0 0 -6.63396
80 1 3.48111 9.68918 8.13742 0 0 0 -6.63396
81 1 6.69967 5.97271 5.53125 0 0 0 -6.63396
82 1 8.30894 8.76006 5.53125 0 0 0 -6.63396
83 1 8.30894 6.90183 8.13742 0 0 0 -6.63396
84 1 6.69967 9.68918 8.13742 0 0 0 -6.63396
85 1 9.91822 5.97271 5.53125 0 0 0 -6.63396
86 1 11.5275 8.76006 5.53125 0 0 0 -6.63396
87 1 11.5275 6.90183 8.13742 0 0 0 -6.63396
88 1 9.91822 9.68918 8.13742 0 0 0 -6.63396
89 1 0.262557 11.5474 5.53125 0 0 0 -6.63396
90 1 1.87183 14.3348 5.53125 0 0 0 -6.63396
91 1 1.87183 12.4765 8.13742 0 0 0 -6.63396
93 1 3.48111 11.5474 5.53125 0 0 0 -6.63396
94 1 5.09039 14.3348 5.53125 0 0 0 -6.63396
95 1 5.09039 12.4765 8.13742 0 0 0 -6.63396
97 1 6.69967 11.5474 5.53125 0 0 0 -6.63396
98 1 8.30894 14.3348 5.53125 0 0 0 -6.63396
99 1 8.30894 12.4765 8.13742 0 0 0 -6.63396
101 1 9.91822 11.5474 5.53125 0 0 0 -6.63396
102 1 11.5275 14.3348 5.53125 0 0 0 -6.63396
103 1 11.5275 12.4765 8.13742 0 0 0 -6.63396
92 1 0.262557 15.2639 8.13742 0 0 0 -6.63396
96 1 3.48111 15.2639 8.13742 0 0 0 -6.63396
105 1 0.262557 17.1221 5.53125 0 0 0 -6.63396
106 1 1.87183 18.0512 8.13742 0 0 0 -6.63396
107 1 3.48111 17.1221 5.53125 0 0 0 -6.63396
108 1 5.09039 18.0512 8.13742 0 0 0 -6.63396
100 1 6.69967 15.2639 8.13742 0 0 0 -6.63396
104 1 9.91822 15.2639 8.13742 0 0 0 -6.63396
109 1 6.69967 17.1221 5.53125 0 0 0 -6.63396
110 1 8.30894 18.0512 8.13742 0 0 0 -6.63396
111 1 9.91822 17.1221 5.53125 0 0 0 -6.63396
112 1 11.5275 18.0512 8.13742 0 0 0 -6.63396
113 1 0.262557 0.398009 10.7436 0 0 0 -6.63396
114 1 1.87183 3.18536 10.7436 0 0 0 -6.63396
115 1 1.87183 1.32713 13.3498 0 0 0 -6.63396
116 1 0.262557 4.11448 13.3498 0 0 0 -6.63396
117 1 3.48111 0.398009 10.7436 0 0 0 -6.63396
118 1 5.09039 3.18536 10.7436 0 0 0 -6.63396
119 1 5.09039 1.32713 13.3498 0 0 0 -6.63396
120 1 3.48111 4.11448 13.3498 0 0 0 -6.63396
169 1 0.262557 0.398009 15.9559 0 0 0 -6.63396
170 1 1.87183 3.18536 15.9559 0 0 0 -6.63396
171 1 3.48111 0.398009 15.9559 0 0 0 -6.63396
172 1 5.09039 3.18536 15.9559 0 0 0 -6.63396
121 1 6.69967 0.398009 10.7436 0 0 0 -6.63396
122 1 8.30894 3.18536 10.7436 0 0 0 -6.63396
123 1 8.30894 1.32713 13.3498 0 0 0 -6.63396
124 1 6.69967 4.11448 13.3498 0 0 0 -6.63396
125 1 9.91822 0.398009 10.7436 0 0 0 -6.63396
126 1 11.5275 3.18536 10.7436 0 0 0 -6.63396
127 1 11.5275 1.32713 13.3498 0 0 0 -6.63396
128 1 9.91822 4.11448 13.3498 0 0 0 -6.63396
173 1 6.69967 0.398009 15.9559 0 0 0 -6.63396
174 1 8.30894 3.18536 15.9559 0 0 0 -6.63396
175 1 9.91822 0.398009 15.9559 0 0 0 -6.63396
176 1 11.5275 3.18536 15.9559 0 0 0 -6.63396
129 1 0.262557 5.97271 10.7436 0 0 0 -6.63396
130 1 1.87183 8.76006 10.7436 0 0 0 -6.63396
131 1 1.87183 6.90183 13.3498 0 0 0 -6.63396
132 1 0.262557 9.68918 13.3498 0 0 0 -6.63396
133 1 3.48111 5.97271 10.7436 0 0 0 -6.63396
134 1 5.09039 8.76006 10.7436 0 0 0 -6.63396
135 1 5.09039 6.90183 13.3498 0 0 0 -6.63396
136 1 3.48111 9.68918 13.3498 0 0 0 -6.63396
177 1 0.262557 5.97271 15.9559 0 0 0 -6.63396
178 1 1.87183 8.76006 15.9559 0 0 0 -6.63396
179 1 3.48111 5.97271 15.9559 0 0 0 -6.63396
180 1 5.09039 8.76006 15.9559 0 0 0 -6.63396
137 1 6.69967 5.97271 10.7436 0 0 0 -6.63396
138 1 8.30894 8.76006 10.7436 0 0 0 -6.63396
139 1 8.30894 6.90183 13.3498 0 0 0 -6.63396
140 1 6.69967 9.68918 13.3498 0 0 0 -6.63396
141 1 9.91822 5.97271 10.7436 0 0 0 -6.63396
142 1 11.5275 8.76006 10.7436 0 0 0 -6.63396
143 1 11.5275 6.90183 13.3498 0 0 0 -6.63396
144 1 9.91822 9.68918 13.3498 0 0 0 -6.63396
181 1 6.69967 5.97271 15.9559 0 0 0 -6.63396
182 1 8.30894 8.76006 15.9559 0 0 0 -6.63396
183 1 9.91822 5.97271 15.9559 0 0 0 -6.63396
184 1 11.5275 8.76006 15.9559 0 0 0 -6.63396
145 1 0.262557 11.5474 10.7436 0 0 0 -6.63396
146 1 1.87183 14.3348 10.7436 0 0 0 -6.63396
147 1 1.87183 12.4765 13.3498 0 0 0 -6.63396
149 1 3.48111 11.5474 10.7436 0 0 0 -6.63396
150 1 5.09039 14.3348 10.7436 0 0 0 -6.63396
151 1 5.09039 12.4765 13.3498 0 0 0 -6.63396
185 1 0.262557 11.5474 15.9559 0 0 0 -6.63396
186 1 1.87183 14.3348 15.9559 0 0 0 -6.63396
187 1 3.48111 11.5474 15.9559 0 0 0 -6.63396
188 1 5.09039 14.3348 15.9559 0 0 0 -6.63396
153 1 6.69967 11.5474 10.7436 0 0 0 -6.63396
154 1 8.30894 14.3348 10.7436 0 0 0 -6.63396
155 1 8.30894 12.4765 13.3498 0 0 0 -6.63396
157 1 9.91822 11.5474 10.7436 0 0 0 -6.63396
158 1 11.5275 14.3348 10.7436 0 0 0 -6.63396
159 1 11.5275 12.4765 13.3498 0 0 0 -6.63396
189 1 6.69967 11.5474 15.9559 0 0 0 -6.63396
190 1 8.30894 14.3348 15.9559 0 0 0 -6.63396
191 1 9.91822 11.5474 15.9559 0 0 0 -6.63396
192 1 11.5275 14.3348 15.9559 0 0 0 -6.63396
148 1 0.262557 15.2639 13.3498 0 0 0 -6.63396
152 1 3.48111 15.2639 13.3498 0 0 0 -6.63396
161 1 0.262557 17.1221 10.7436 0 0 0 -6.63396
162 1 1.87183 18.0512 13.3498 0 0 0 -6.63396
163 1 3.48111 17.1221 10.7436 0 0 0 -6.63396
164 1 5.09039 18.0512 13.3498 0 0 0 -6.63396
193 1 0.262557 17.1221 15.9559 0 0 0 -6.63396
194 1 3.48111 17.1221 15.9559 0 0 0 -6.63396
156 1 6.69967 15.2639 13.3498 0 0 0 -6.63396
160 1 9.91822 15.2639 13.3498 0 0 0 -6.63396
165 1 6.69967 17.1221 10.7436 0 0 0 -6.63396
166 1 8.30894 18.0512 13.3498 0 0 0 -6.63396
167 1 9.91822 17.1221 10.7436 0 0 0 -6.63396
168 1 11.5275 18.0512 13.3498 0 0 0 -6.63396
195 1 6.69967 17.1221 15.9559 0 0 0 -6.63396
196 1 9.91822 17.1221 15.9559 0 0 0 -6.63396
197 1 1.87183 1.32713 18.5621 0 0 0 -6.63396
198 1 0.262557 4.11448 18.5621 0 0 0 -6.63396
199 1 5.09039 1.32713 18.5621 0 0 0 -6.63396
200 1 3.48111 4.11448 18.5621 0 0 0 -6.63396
201 1 8.30894 1.32713 18.5621 0 0 0 -6.63396
202 1 6.69967 4.11448 18.5621 0 0 0 -6.63396
203 1 11.5275 1.32713 18.5621 0 0 0 -6.63396
204 1 9.91822 4.11448 18.5621 0 0 0 -6.63396
205 1 1.87183 6.90183 18.5621 0 0 0 -6.63396
206 1 0.262557 9.68918 18.5621 0 0 0 -6.63396
207 1 5.09039 6.90183 18.5621 0 0 0 -6.63396
208 1 3.48111 9.68918 18.5621 0 0 0 -6.63396
209 1 8.30894 6.90183 18.5621 0 0 0 -6.63396
210 1 6.69967 9.68918 18.5621 0 0 0 -6.63396
211 1 11.5275 6.90183 18.5621 0 0 0 -6.63396
212 1 9.91822 9.68918 18.5621 0 0 0 -6.63396
213 1 1.87183 12.4765 18.5621 0 0 0 -6.63396
215 1 5.09039 12.4765 18.5621 0 0 0 -6.63396
217 1 8.30894 12.4765 18.5621 0 0 0 -6.63396
219 1 11.5275 12.4765 18.5621 0 0 0 -6.63396
214 1 0.262557 15.2639 18.5621 0 0 0 -6.63396
216 1 3.48111 15.2639 18.5621 0 0 0 -6.63396
221 1 1.87183 18.0512 18.5621 0 0 0 -6.63396
222 1 5.09039 18.0512 18.5621 0 0 0 -6.63396
218 1 6.69967 15.2639 18.5621 0 0 0 -6.63396
220 1 9.91822 15.2639 18.5621 0 0 0 -6.63396
223 1 8.30894 18.0512 18.5621 0 0 0 -6.63396
224 1 11.5275 18.0512 18.5621 0 0 0 -6.63396
225 1 0.262557 0.398009 21.1683 0 0 0 -6.63396
226 1 1.87183 3.18536 21.1683 0 0 0 -6.63396
227 1 1.87183 1.32713 23.7745 0 0 0 -6.63396
228 1 0.262557 4.11448 23.7745 0 0 0 -6.63396
229 1 3.48111 0.398009 21.1683 0 0 0 -6.63396
230 1 5.09039 3.18536 21.1683 0 0 0 -6.63396
231 1 5.09039 1.32713 23.7745 0 0 0 -6.63396
232 1 3.48111 4.11448 23.7745 0 0 0 -6.63396
233 1 6.69967 0.398009 21.1683 0 0 0 -6.63396
234 1 8.30894 3.18536 21.1683 0 0 0 -6.63396
235 1 8.30894 1.32713 23.7745 0 0 0 -6.63396
236 1 6.69967 4.11448 23.7745 0 0 0 -6.63396
237 1 9.91822 0.398009 21.1683 0 0 0 -6.63396
238 1 11.5275 3.18536 21.1683 0 0 0 -6.63396
239 1 11.5275 1.32713 23.7745 0 0 0 -6.63396
240 1 9.91822 4.11448 23.7745 0 0 0 -6.63396
241 1 0.262557 5.97271 21.1683 0 0 0 -6.63396
242 1 1.87183 8.76006 21.1683 0 0 0 -6.63396
243 1 1.87183 6.90183 23.7745 0 0 0 -6.63396
244 1 0.262557 9.68918 23.7745 0 0 0 -6.63396
245 1 3.48111 5.97271 21.1683 0 0 0 -6.63396
246 1 5.09039 8.76006 21.1683 0 0 0 -6.63396
247 1 5.09039 6.90183 23.7745 0 0 0 -6.63396
248 1 3.48111 9.68918 23.7745 0 0 0 -6.63396
249 1 6.69967 5.97271 21.1683 0 0 0 -6.63396
250 1 8.30894 8.76006 21.1683 0 0 0 -6.63396
251 1 8.30894 6.90183 23.7745 0 0 0 -6.63396
252 1 6.69967 9.68918 23.7745 0 0 0 -6.63396
253 1 9.91822 5.97271 21.1683 0 0 0 -6.63396
254 1 11.5275 8.76006 21.1683 0 0 0 -6.63396
255 1 11.5275 6.90183 23.7745 0 0 0 -6.63396
256 1 9.91822 9.68918 23.7745 0 0 0 -6.63396
257 1 0.262557 11.5474 21.1683 0 0 0 -6.63396
258 1 1.87183 14.3348 21.1683 0 0 0 -6.63396
259 1 1.87183 12.4765 23.7745 0 0 0 -6.63396
261 1 3.48111 11.5474 21.1683 0 0 0 -6.63396
262 1 5.09039 14.3348 21.1683 0 0 0 -6.63396
263 1 5.09039 12.4765 23.7745 0 0 0 -6.63396
265 1 6.69967 11.5474 21.1683 0 0 0 -6.63396
266 1 8.30894 14.3348 21.1683 0 0 0 -6.63396
267 1 8.30894 12.4765 23.7745 0 0 0 -6.63396
269 1 9.91822 11.5474 21.1683 0 0 0 -6.63396
270 1 11.5275 14.3348 21.1683 0 0 0 -6.63396
271 1 11.5275 12.4765 23.7745 0 0 0 -6.63396
260 1 0.262557 15.2639 23.7745 0 0 0 -6.63396
264 1 3.48111 15.2639 23.7745 0 0 0 -6.63396
273 1 0.262557 17.1221 21.1683 0 0 0 -6.63396
274 1 1.87183 18.0512 23.7745 0 0 0 -6.63396
275 1 3.48111 17.1221 21.1683 0 0 0 -6.63396
276 1 5.09039 18.0512 23.7745 0 0 0 -6.63396
268 1 6.69967 15.2639 23.7745 0 0 0 -6.63396
272 1 9.91822 15.2639 23.7745 0 0 0 -6.63396
277 1 6.69967 17.1221 21.1683 0 0 0 -6.63396
278 1 8.30894 18.0512 23.7745 0 0 0 -6.63396
279 1 9.91822 17.1221 21.1683 0 0 0 -6.63396
280 1 11.5275 18.0512 23.7745 0 0 0 -6.63396
281 1 0.262557 0.398009 26.3806 0 0 0 -6.63396
282 1 1.87183 3.18536 26.3806 0 0 0 -6.63396
283 1 1.87183 1.32713 28.9868 0 0 0 -6.63396
284 1 0.262557 4.11448 28.9868 0 0 0 -6.63396
285 1 3.48111 0.398009 26.3806 0 0 0 -6.63396
286 1 5.09039 3.18536 26.3806 0 0 0 -6.63396
287 1 5.09039 1.32713 28.9868 0 0 0 -6.63396
288 1 3.48111 4.11448 28.9868 0 0 0 -6.63396
337 1 0.262557 0.398009 31.593 0 0 0 -6.63396
338 1 1.87183 3.18536 31.593 0 0 0 -6.63396
339 1 3.48111 0.398009 31.593 0 0 0 -6.63396
340 1 5.09039 3.18536 31.593 0 0 0 -6.63396
289 1 6.69967 0.398009 26.3806 0 0 0 -6.63396
290 1 8.30894 3.18536 26.3806 0 0 0 -6.63396
291 1 8.30894 1.32713 28.9868 0 0 0 -6.63396
292 1 6.69967 4.11448 28.9868 0 0 0 -6.63396
293 1 9.91822 0.398009 26.3806 0 0 0 -6.63396
294 1 11.5275 3.18536 26.3806 0 0 0 -6.63396
295 1 11.5275 1.32713 28.9868 0 0 0 -6.63396
296 1 9.91822 4.11448 28.9868 0 0 0 -6.63396
341 1 6.69967 0.398009 31.593 0 0 0 -6.63396
342 1 8.30894 3.18536 31.593 0 0 0 -6.63396
343 1 9.91822 0.398009 31.593 0 0 0 -6.63396
344 1 11.5275 3.18536 31.593 0 0 0 -6.63396
297 1 0.262557 5.97271 26.3806 0 0 0 -6.63396
298 1 1.87183 8.76006 26.3806 0 0 0 -6.63396
299 1 1.87183 6.90183 28.9868 0 0 0 -6.63396
300 1 0.262557 9.68918 28.9868 0 0 0 -6.63396
301 1 3.48111 5.97271 26.3806 0 0 0 -6.63396
302 1 5.09039 8.76006 26.3806 0 0 0 -6.63396
303 1 5.09039 6.90183 28.9868 0 0 0 -6.63396
304 1 3.48111 9.68918 28.9868 0 0 0 -6.63396
345 1 0.262557 5.97271 31.593 0 0 0 -6.63396
346 1 1.87183 8.76006 31.593 0 0 0 -6.63396
347 1 3.48111 5.97271 31.593 0 0 0 -6.63396
348 1 5.09039 8.76006 31.593 0 0 0 -6.63396
305 1 6.69967 5.97271 26.3806 0 0 0 -6.63396
306 1 8.30894 8.76006 26.3806 0 0 0 -6.63396
307 1 8.30894 6.90183 28.9868 0 0 0 -6.63396
308 1 6.69967 9.68918 28.9868 0 0 0 -6.63396
309 1 9.91822 5.97271 26.3806 0 0 0 -6.63396
310 1 11.5275 8.76006 26.3806 0 0 0 -6.63396
311 1 11.5275 6.90183 28.9868 0 0 0 -6.63396
312 1 9.91822 9.68918 28.9868 0 0 0 -6.63396
349 1 6.69967 5.97271 31.593 0 0 0 -6.63396
350 1 8.30894 8.76006 31.593 0 0 0 -6.63396
351 1 9.91822 5.97271 31.593 0 0 0 -6.63396
352 1 11.5275 8.76006 31.593 0 0 0 -6.63396
313 1 0.262557 11.5474 26.3806 0 0 0 -6.63396
314 1 1.87183 14.3348 26.3806 0 0 0 -6.63396
315 1 1.87183 12.4765 28.9868 0 0 0 -6.63396
317 1 3.48111 11.5474 26.3806 0 0 0 -6.63396
318 1 5.09039 14.3348 26.3806 0 0 0 -6.63396
319 1 5.09039 12.4765 28.9868 0 0 0 -6.63396
353 1 0.262557 11.5474 31.593 0 0 0 -6.63396
354 1 1.87183 14.3348 31.593 0 0 0 -6.63396
355 1 3.48111 11.5474 31.593 0 0 0 -6.63396
356 1 5.09039 14.3348 31.593 0 0 0 -6.63396
321 1 6.69967 11.5474 26.3806 0 0 0 -6.63396
322 1 8.30894 14.3348 26.3806 0 0 0 -6.63396
323 1 8.30894 12.4765 28.9868 0 0 0 -6.63396
325 1 9.91822 11.5474 26.3806 0 0 0 -6.63396
326 1 11.5275 14.3348 26.3806 0 0 0 -6.63396
327 1 11.5275 12.4765 28.9868 0 0 0 -6.63396
357 1 6.69967 11.5474 31.593 0 0 0 -6.63396
358 1 8.30894 14.3348 31.593 0 0 0 -6.63396
359 1 9.91822 11.5474 31.593 0 0 0 -6.63396
360 1 11.5275 14.3348 31.593 0 0 0 -6.63396
316 1 0.262557 15.2639 28.9868 0 0 0 -6.63396
320 1 3.48111 15.2639 28.9868 0 0 0 -6.63396
329 1 0.262557 17.1221 26.3806 0 0 0 -6.63396
330 1 1.87183 18.0512 28.9868 0 0 0 -6.63396
331 1 3.48111 17.1221 26.3806 0 0 0 -6.63396
332 1 5.09039 18.0512 28.9868 0 0 0 -6.63396
361 1 0.262557 17.1221 31.593 0 0 0 -6.63396
362 1 3.48111 17.1221 31.593 0 0 0 -6.63396
324 1 6.69967 15.2639 28.9868 0 0 0 -6.63396
328 1 9.91822 15.2639 28.9868 0 0 0 -6.63396
333 1 6.69967 17.1221 26.3806 0 0 0 -6.63396
334 1 8.30894 18.0512 28.9868 0 0 0 -6.63396
335 1 9.91822 17.1221 26.3806 0 0 0 -6.63396
336 1 11.5275 18.0512 28.9868 0 0 0 -6.63396
363 1 6.69967 17.1221 31.593 0 0 0 -6.63396
364 1 9.91822 17.1221 31.593 0 0 0 -6.63396
365 1 1.87183 1.32713 34.1992 0 0 0 -6.63396
366 1 0.262557 4.11448 34.1992 0 0 0 -6.63396
367 1 5.09039 1.32713 34.1992 0 0 0 -6.63396
368 1 3.48111 4.11448 34.1992 0 0 0 -6.63396
393 1 0.262557 0.398009 36.8053 0 0 0 -6.63396
394 1 1.87183 3.18536 36.8053 0 0 0 -6.63396
397 1 3.48111 0.398009 36.8053 0 0 0 -6.63396
398 1 5.09039 3.18536 36.8053 0 0 0 -6.63396
369 1 8.30894 1.32713 34.1992 0 0 0 -6.63396
370 1 6.69967 4.11448 34.1992 0 0 0 -6.63396
371 1 11.5275 1.32713 34.1992 0 0 0 -6.63396
372 1 9.91822 4.11448 34.1992 0 0 0 -6.63396
401 1 6.69967 0.398009 36.8053 0 0 0 -6.63396
402 1 8.30894 3.18536 36.8053 0 0 0 -6.63396
405 1 9.91822 0.398009 36.8053 0 0 0 -6.63396
406 1 11.5275 3.18536 36.8053 0 0 0 -6.63396
373 1 1.87183 6.90183 34.1992 0 0 0 -6.63396
374 1 0.262557 9.68918 34.1992 0 0 0 -6.63396
375 1 5.09039 6.90183 34.1992 0 0 0 -6.63396
376 1 3.48111 9.68918 34.1992 0 0 0 -6.63396
409 1 0.262557 5.97271 36.8053 0 0 0 -6.63396
410 1 1.87183 8.76006 36.8053 0 0 0 -6.63396
413 1 3.48111 5.97271 36.8053 0 0 0 -6.63396
414 1 5.09039 8.76006 36.8053 0 0 0 -6.63396
377 1 8.30894 6.90183 34.1992 0 0 0 -6.63396
378 1 6.69967 9.68918 34.1992 0 0 0 -6.63396
379 1 11.5275 6.90183 34.1992 0 0 0 -6.63396
380 1 9.91822 9.68918 34.1992 0 0 0 -6.63396
417 1 6.69967 5.97271 36.8053 0 0 0 -6.63396
418 1 8.30894 8.76006 36.8053 0 0 0 -6.63396
421 1 9.91822 5.97271 36.8053 0 0 0 -6.63396
422 1 11.5275 8.76006 36.8053 0 0 0 -6.63396
381 1 1.87183 12.4765 34.1992 0 0 0 -6.63396
383 1 5.09039 12.4765 34.1992 0 0 0 -6.63396
425 1 0.262557 11.5474 36.8053 0 0 0 -6.63396
426 1 1.87183 14.3348 36.8053 0 0 0 -6.63396
429 1 3.48111 11.5474 36.8053 0 0 0 -6.63396
430 1 5.09039 14.3348 36.8053 0 0 0 -6.63396
385 1 8.30894 12.4765 34.1992 0 0 0 -6.63396
387 1 11.5275 12.4765 34.1992 0 0 0 -6.63396
433 1 6.69967 11.5474 36.8053 0 0 0 -6.63396
434 1 8.30894 14.3348 36.8053 0 0 0 -6.63396
437 1 9.91822 11.5474 36.8053 0 0 0 -6.63396
438 1 11.5275 14.3348 36.8053 0 0 0 -6.63396
382 1 0.262557 15.2639 34.1992 0 0 0 -6.63396
384 1 3.48111 15.2639 34.1992 0 0 0 -6.63396
389 1 1.87183 18.0512 34.1992 0 0 0 -6.63396
390 1 5.09039 18.0512 34.1992 0 0 0 -6.63396
441 1 0.262557 17.1221 36.8053 0 0 0 -6.63396
443 1 3.48111 17.1221 36.8053 0 0 0 -6.63396
386 1 6.69967 15.2639 34.1992 0 0 0 -6.63396
388 1 9.91822 15.2639 34.1992 0 0 0 -6.63396
391 1 8.30894 18.0512 34.1992 0 0 0 -6.63396
392 1 11.5275 18.0512 34.1992 0 0 0 -6.63396
445 1 6.69967 17.1221 36.8053 0 0 0 -6.63396
447 1 9.91822 17.1221 36.8053 0 0 0 -6.63396
395 1 1.87183 1.32713 39.4115 0 0 0 -6.63396
396 1 0.262557 4.11448 39.4115 0 0 0 -6.63396
399 1 5.09039 1.32713 39.4115 0 0 0 -6.63396
400 1 3.48111 4.11448 39.4115 0 0 0 -6.63396
449 1 0.262557 0.398009 42.0177 0 0 0 -6.63396
450 1 1.87183 3.18536 42.0177 0 0 0 -6.63396
453 1 3.48111 0.398009 42.0177 0 0 0 -6.63396
454 1 5.09039 3.18536 42.0177 0 0 0 -6.63396
403 1 8.30894 1.32713 39.4115 0 0 0 -6.63396
404 1 6.69967 4.11448 39.4115 0 0 0 -6.63396
407 1 11.5275 1.32713 39.4115 0 0 0 -6.63396
408 1 9.91822 4.11448 39.4115 0 0 0 -6.63396
457 1 6.69967 0.398009 42.0177 0 0 0 -6.63396
458 1 8.30894 3.18536 42.0177 0 0 0 -6.63396
461 1 9.91822 0.398009 42.0177 0 0 0 -6.63396
462 1 11.5275 3.18536 42.0177 0 0 0 -6.63396
411 1 1.87183 6.90183 39.4115 0 0 0 -6.63396
412 1 0.262557 9.68918 39.4115 0 0 0 -6.63396
415 1 5.09039 6.90183 39.4115 0 0 0 -6.63396
416 1 3.48111 9.68918 39.4115 0 0 0 -6.63396
465 1 0.262557 5.97271 42.0177 0 0 0 -6.63396
466 1 1.87183 8.76006 42.0177 0 0 0 -6.63396
469 1 3.48111 5.97271 42.0177 0 0 0 -6.63396
470 1 5.09039 8.76006 42.0177 0 0 0 -6.63396
419 1 8.30894 6.90183 39.4115 0 0 0 -6.63396
420 1 6.69967 9.68918 39.4115 0 0 0 -6.63396
423 1 11.5275 6.90183 39.4115 0 0 0 -6.63396
424 1 9.91822 9.68918 39.4115 0 0 0 -6.63396
473 1 6.69967 5.97271 42.0177 0 0 0 -6.63396
474 1 8.30894 8.76006 42.0177 0 0 0 -6.63396
477 1 9.91822 5.97271 42.0177 0 0 0 -6.63396
478 1 11.5275 8.76006 42.0177 0 0 0 -6.63396
427 1 1.87183 12.4765 39.4115 0 0 0 -6.63396
431 1 5.09039 12.4765 39.4115 0 0 0 -6.63396
481 1 0.262557 11.5474 42.0177 0 0 0 -6.63396
482 1 1.87183 14.3348 42.0177 0 0 0 -6.63396
485 1 3.48111 11.5474 42.0177 0 0 0 -6.63396
486 1 5.09039 14.3348 42.0177 0 0 0 -6.63396
435 1 8.30894 12.4765 39.4115 0 0 0 -6.63396
439 1 11.5275 12.4765 39.4115 0 0 0 -6.63396
489 1 6.69967 11.5474 42.0177 0 0 0 -6.63396
490 1 8.30894 14.3348 42.0177 0 0 0 -6.63396
493 1 9.91822 11.5474 42.0177 0 0 0 -6.63396
494 1 11.5275 14.3348 42.0177 0 0 0 -6.63396
428 1 0.262557 15.2639 39.4115 0 0 0 -6.63396
432 1 3.48111 15.2639 39.4115 0 0 0 -6.63396
442 1 1.87183 18.0512 39.4115 0 0 0 -6.63396
444 1 5.09039 18.0512 39.4115 0 0 0 -6.63396
497 1 0.262557 17.1221 42.0177 0 0 0 -6.63396
499 1 3.48111 17.1221 42.0177 0 0 0 -6.63396
436 1 6.69967 15.2639 39.4115 0 0 0 -6.63396
440 1 9.91822 15.2639 39.4115 0 0 0 -6.63396
446 1 8.30894 18.0512 39.4115 0 0 0 -6.63396
448 1 11.5275 18.0512 39.4115 0 0 0 -6.63396
501 1 6.69967 17.1221 42.0177 0 0 0 -6.63396
503 1 9.91822 17.1221 42.0177 0 0 0 -6.63396
451 1 1.87183 1.32713 44.6239 0 0 0 -6.63396
452 1 0.262557 4.11448 44.6239 0 0 0 -6.63396
455 1 5.09039 1.32713 44.6239 0 0 0 -6.63396
456 1 3.48111 4.11448 44.6239 0 0 0 -6.63396
459 1 8.30894 1.32713 44.6239 0 0 0 -6.63396
460 1 6.69967 4.11448 44.6239 0 0 0 -6.63396
463 1 11.5275 1.32713 44.6239 0 0 0 -6.63396
464 1 9.91822 4.11448 44.6239 0 0 0 -6.63396
467 1 1.87183 6.90183 44.6239 0 0 0 -6.63396
468 1 0.262557 9.68918 44.6239 0 0 0 -6.63396
471 1 5.09039 6.90183 44.6239 0 0 0 -6.63396
472 1 3.48111 9.68918 44.6239 0 0 0 -6.63396
475 1 8.30894 6.90183 44.6239 0 0 0 -6.63396
476 1 6.69967 9.68918 44.6239 0 0 0 -6.63396
479 1 11.5275 6.90183 44.6239 0 0 0 -6.63396
480 1 9.91822 9.68918 44.6239 0 0 0 -6.63396
483 1 1.87183 12.4765 44.6239 0 0 0 -6.63396
487 1 5.09039 12.4765 44.6239 0 0 0 -6.63396
491 1 8.30894 12.4765 44.6239 0 0 0 -6.63396
495 1 11.5275 12.4765 44.6239 0 0 0 -6.63396
484 1 0.262557 15.2639 44.6239 0 0 0 -6.63396
488 1 3.48111 15.2639 44.6239 0 0 0 -6.63396
498 1 1.87183 18.0512 44.6239 0 0 0 -6.63396
500 1 5.09039 18.0512 44.6239 0 0 0 -6.63396
492 1 6.69967 15.2639 44.6239 0 0 0 -6.63396
496 1 9.91822 15.2639 44.6239 0 0 0 -6.63396
502 1 8.30894 18.0512 44.6239 0 0 0 -6.63396
504 1 11.5275 18.0512 44.6239 0 0 0 -6.63396
505 1 0.262557 0.398009 47.23 0 0 0 -6.63396
506 1 1.87183 3.18536 47.23 0 0 0 -6.63396
507 1 1.87183 1.32713 49.8362 0 0 0 -6.63396
508 1 0.262557 4.11448 49.8362 0 0 0 -6.63396
509 1 3.48111 0.398009 47.23 0 0 0 -6.63396
510 1 5.09039 3.18536 47.23 0 0 0 -6.63396
511 1 5.09039 1.32713 49.8362 0 0 0 -6.63396
512 1 3.48111 4.11448 49.8362 0 0 0 -6.63396
561 1 0.262557 0.398009 52.4424 0 0 0 -6.63396
562 1 1.87183 3.18536 52.4424 0 0 0 -6.63396
565 1 3.48111 0.398009 52.4424 0 0 0 -6.63396
566 1 5.09039 3.18536 52.4424 0 0 0 -6.63396
513 1 6.69967 0.398009 47.23 0 0 0 -6.63396
514 1 8.30894 3.18536 47.23 0 0 0 -6.63396
515 1 8.30894 1.32713 49.8362 0 0 0 -6.63396
516 1 6.69967 4.11448 49.8362 0 0 0 -6.63396
517 1 9.91822 0.398009 47.23 0 0 0 -6.63396
518 1 11.5275 3.18536 47.23 0 0 0 -6.63396
519 1 11.5275 1.32713 49.8362 0 0 0 -6.63396
520 1 9.91822 4.11448 49.8362 0 0 0 -6.63396
569 1 6.69967 0.398009 52.4424 0 0 0 -6.63396
570 1 8.30894 3.18536 52.4424 0 0 0 -6.63396
573 1 9.91822 0.398009 52.4424 0 0 0 -6.63396
574 1 11.5275 3.18536 52.4424 0 0 0 -6.63396
521 1 0.262557 5.97271 47.23 0 0 0 -6.63396
522 1 1.87183 8.76006 47.23 0 0 0 -6.63396
523 1 1.87183 6.90183 49.8362 0 0 0 -6.63396
524 1 0.262557 9.68918 49.8362 0 0 0 -6.63396
525 1 3.48111 5.97271 47.23 0 0 0 -6.63396
526 1 5.09039 8.76006 47.23 0 0 0 -6.63396
527 1 5.09039 6.90183 49.8362 0 0 0 -6.63396
528 1 3.48111 9.68918 49.8362 0 0 0 -6.63396
577 1 0.262557 5.97271 52.4424 0 0 0 -6.63396
578 1 1.87183 8.76006 52.4424 0 0 0 -6.63396
581 1 3.48111 5.97271 52.4424 0 0 0 -6.63396
582 1 5.09039 8.76006 52.4424 0 0 0 -6.63396
529 1 6.69967 5.97271 47.23 0 0 0 -6.63396
530 1 8.30894 8.76006 47.23 0 0 0 -6.63396
531 1 8.30894 6.90183 49.8362 0 0 0 -6.63396
532 1 6.69967 9.68918 49.8362 0 0 0 -6.63396
533 1 9.91822 5.97271 47.23 0 0 0 -6.63396
534 1 11.5275 8.76006 47.23 0 0 0 -6.63396
535 1 11.5275 6.90183 49.8362 0 0 0 -6.63396
536 1 9.91822 9.68918 49.8362 0 0 0 -6.63396
585 1 6.69967 5.97271 52.4424 0 0 0 -6.63396
586 1 8.30894 8.76006 52.4424 0 0 0 -6.63396
589 1 9.91822 5.97271 52.4424 0 0 0 -6.63396
590 1 11.5275 8.76006 52.4424 0 0 0 -6.63396
537 1 0.262557 11.5474 47.23 0 0 0 -6.63396
538 1 1.87183 14.3348 47.23 0 0 0 -6.63396
539 1 1.87183 12.4765 49.8362 0 0 0 -6.63396
541 1 3.48111 11.5474 47.23 0 0 0 -6.63396
542 1 5.09039 14.3348 47.23 0 0 0 -6.63396
543 1 5.09039 12.4765 49.8362 0 0 0 -6.63396
593 1 0.262557 11.5474 52.4424 0 0 0 -6.63396
594 1 1.87183 14.3348 52.4424 0 0 0 -6.63396
597 1 3.48111 11.5474 52.4424 0 0 0 -6.63396
598 1 5.09039 14.3348 52.4424 0 0 0 -6.63396
545 1 6.69967 11.5474 47.23 0 0 0 -6.63396
546 1 8.30894 14.3348 47.23 0 0 0 -6.63396
547 1 8.30894 12.4765 49.8362 0 0 0 -6.63396
549 1 9.91822 11.5474 47.23 0 0 0 -6.63396
550 1 11.5275 14.3348 47.23 0 0 0 -6.63396
551 1 11.5275 12.4765 49.8362 0 0 0 -6.63396
601 1 6.69967 11.5474 52.4424 0 0 0 -6.63396
602 1 8.30894 14.3348 52.4424 0 0 0 -6.63396
605 1 9.91822 11.5474 52.4424 0 0 0 -6.63396
606 1 11.5275 14.3348 52.4424 0 0 0 -6.63396
540 1 0.262557 15.2639 49.8362 0 0 0 -6.63396
544 1 3.48111 15.2639 49.8362 0 0 0 -6.63396
553 1 0.262557 17.1221 47.23 0 0 0 -6.63396
554 1 1.87183 18.0512 49.8362 0 0 0 -6.63396
555 1 3.48111 17.1221 47.23 0 0 0 -6.63396
556 1 5.09039 18.0512 49.8362 0 0 0 -6.63396
609 1 0.262557 17.1221 52.4424 0 0 0 -6.63396
611 1 3.48111 17.1221 52.4424 0 0 0 -6.63396
548 1 6.69967 15.2639 49.8362 0 0 0 -6.63396
552 1 9.91822 15.2639 49.8362 0 0 0 -6.63396
557 1 6.69967 17.1221 47.23 0 0 0 -6.63396
558 1 8.30894 18.0512 49.8362 0 0 0 -6.63396
559 1 9.91822 17.1221 47.23 0 0 0 -6.63396
560 1 11.5275 18.0512 49.8362 0 0 0 -6.63396
613 1 6.69967 17.1221 52.4424 0 0 0 -6.63396
615 1 9.91822 17.1221 52.4424 0 0 0 -6.63396
563 1 1.87183 1.32713 55.0486 0 0 0 -6.63396
564 1 0.262557 4.11448 55.0486 0 0 0 -6.63396
567 1 5.09039 1.32713 55.0486 0 0 0 -6.63396
568 1 3.48111 4.11448 55.0486 0 0 0 -6.63396
571 1 8.30894 1.32713 55.0486 0 0 0 -6.63396
572 1 6.69967 4.11448 55.0486 0 0 0 -6.63396
575 1 11.5275 1.32713 55.0486 0 0 0 -6.63396
576 1 9.91822 4.11448 55.0486 0 0 0 -6.63396
579 1 1.87183 6.90183 55.0486 0 0 0 -6.63396
580 1 0.262557 9.68918 55.0486 0 0 0 -6.63396
583 1 5.09039 6.90183 55.0486 0 0 0 -6.63396
584 1 3.48111 9.68918 55.0486 0 0 0 -6.63396
587 1 8.30894 6.90183 55.0486 0 0 0 -6.63396
588 1 6.69967 9.68918 55.0486 0 0 0 -6.63396
591 1 11.5275 6.90183 55.0486 0 0 0 -6.63396
592 1 9.91822 9.68918 55.0486 0 0 0 -6.63396
595 1 1.87183 12.4765 55.0486 0 0 0 -6.63396
599 1 5.09039 12.4765 55.0486 0 0 0 -6.63396
603 1 8.30894 12.4765 55.0486 0 0 0 -6.63396
607 1 11.5275 12.4765 55.0486 0 0 0 -6.63396
596 1 0.262557 15.2639 55.0486 0 0 0 -6.63396
600 1 3.48111 15.2639 55.0486 0 0 0 -6.63396
610 1 1.87183 18.0512 55.0486 0 0 0 -6.63396
612 1 5.09039 18.0512 55.0486 0 0 0 -6.63396
604 1 6.69967 15.2639 55.0486 0 0 0 -6.63396
608 1 9.91822 15.2639 55.0486 0 0 0 -6.63396
614 1 8.30894 18.0512 55.0486 0 0 0 -6.63396
616 1 11.5275 18.0512 55.0486 0 0 0 -6.63396
617 1 0.262557 0.398009 57.6547 0 0 0 -6.63396
618 1 1.87183 3.18536 57.6547 0 0 0 -6.63396
619 1 1.87183 1.32713 60.2609 0 0 0 -6.63396
620 1 0.262557 4.11448 60.2609 0 0 0 -6.63396
621 1 3.48111 0.398009 57.6547 0 0 0 -6.63396
622 1 5.09039 3.18536 57.6547 0 0 0 -6.63396
623 1 5.09039 1.32713 60.2609 0 0 0 -6.63396
624 1 3.48111 4.11448 60.2609 0 0 0 -6.63396
625 1 6.69967 0.398009 57.6547 0 0 0 -6.63396
626 1 8.30894 3.18536 57.6547 0 0 0 -6.63396
627 1 8.30894 1.32713 60.2609 0 0 0 -6.63396
628 1 6.69967 4.11448 60.2609 0 0 0 -6.63396
629 1 9.91822 0.398009 57.6547 0 0 0 -6.63396
630 1 11.5275 3.18536 57.6547 0 0 0 -6.63396
631 1 11.5275 1.32713 60.2609 0 0 0 -6.63396
632 1 9.91822 4.11448 60.2609 0 0 0 -6.63396
633 1 0.262557 5.97271 57.6547 0 0 0 -6.63396
634 1 1.87183 8.76006 57.6547 0 0 0 -6.63396
635 1 1.87183 6.90183 60.2609 0 0 0 -6.63396
636 1 0.262557 9.68918 60.2609 0 0 0 -6.63396
637 1 3.48111 5.97271 57.6547 0 0 0 -6.63396
638 1 5.09039 8.76006 57.6547 0 0 0 -6.63396
639 1 5.09039 6.90183 60.2609 0 0 0 -6.63396
640 1 3.48111 9.68918 60.2609 0 0 0 -6.63396
641 1 6.69967 5.97271 57.6547 0 0 0 -6.63396
642 1 8.30894 8.76006 57.6547 0 0 0 -6.63396
643 1 8.30894 6.90183 60.2609 0 0 0 -6.63396
644 1 6.69967 9.68918 60.2609 0 0 0 -6.63396
645 1 9.91822 5.97271 57.6547 0 0 0 -6.63396
646 1 11.5275 8.76006 57.6547 0 0 0 -6.63396
647 1 11.5275 6.90183 60.2609 0 0 0 -6.63396
648 1 9.91822 9.68918 60.2609 0 0 0 -6.63396
649 1 0.262557 11.5474 57.6547 0 0 0 -6.63396
650 1 1.87183 14.3348 57.6547 0 0 0 -6.63396
651 1 1.87183 12.4765 60.2609 0 0 0 -6.63396
653 1 3.48111 11.5474 57.6547 0 0 0 -6.63396
654 1 5.09039 14.3348 57.6547 0 0 0 -6.63396
655 1 5.09039 12.4765 60.2609 0 0 0 -6.63396
657 1 6.69967 11.5474 57.6547 0 0 0 -6.63396
658 1 8.30894 14.3348 57.6547 0 0 0 -6.63396
659 1 8.30894 12.4765 60.2609 0 0 0 -6.63396
661 1 9.91822 11.5474 57.6547 0 0 0 -6.63396
662 1 11.5275 14.3348 57.6547 0 0 0 -6.63396
663 1 11.5275 12.4765 60.2609 0 0 0 -6.63396
652 1 0.262557 15.2639 60.2609 0 0 0 -6.63396