ITEM: TIMESTEP
4000
ITEM: NUMBER OF ATOMS
10752
ITEM: BOX BOUNDS pp pp pp
1.4089166720235069e-01 5.1881097026587760e+01
2.1354805772561464e-01 7.8628097527266689e+01
5.8561495130484320e-01 6.2600367726161984e+01
ITEM: ATOMS id type x y z vx vy vz c_EnergyKinAtom c_EnergyPotAtom c_ComputeNeighbor
3 1 1.57503 1.35244 3.04004 -0.317604 0.0251254 -0.339498 0.00102471 -6.52329 1
7 1 4.86092 1.34739 3.14844 -0.201474 0.454818 -1.7772 0.0161009 -6.66485 0
8 1 3.21134 4.15667 3.15511 1.08699 0.212325 0.384579 0.00649784 -6.6398 0
1 1 2.8574 0.412035 5.5248 -1.58308 0.426108 -0.558483 0.0141802 -6.32921 3
38 1 4.92677 14.4114 0.667011 0.15397 1.0586 -0.499537 0.00484489 -6.62694 0
12 1 6.51155 4.14586 3.18775 0.282816 -0.947687 -1.11401 0.0104905 -6.67125 0
11 1 8.27722 1.4067 2.93181 0.813824 0.0993658 -0.93319 0.00729442 -6.44128 1
16 1 9.74867 4.14984 3.24081 0.63629 -0.335443 -0.548384 0.0038675 -6.61638 0
65 1 7.15537 0.626368 5.3575 -1.88234 0.448106 0.893465 0.0214729 -6.04768 4
66 1 8.19536 3.31195 5.76119 0.641712 -0.244281 -0.748156 0.00487487 -6.5795 1
15 1 11.4029 1.34583 3.20409 1.47766 -0.299856 0.0512054 0.0107596 -6.63574 0
2692 1 12.976 4.17129 3.16069 -0.699784 0.014333 -0.163956 0.00244302 -6.6327 0
2691 1 14.5817 1.40061 3.14727 -0.887622 0.369557 0.78263 0.00726572 -6.63843 0
34 1 1.70421 14.4511 0.589891 -1.13675 0.171096 0.750858 0.00947023 -6.63092 0
2710 1 17.8058 8.87046 0.616071 0.543337 -0.631066 0.200838 0.00408467 -6.62903 0
2722 1 14.5527 14.4734 0.620084 -0.00545769 -0.460338 0.0808539 0.000888198 -6.6582 0
2695 1 17.8036 1.34055 3.21031 0.584386 1.38801 0.408923 0.0115125 -6.62244 0
2696 1 16.2143 4.21708 3.17442 0.324432 1.43079 0.392822 0.0109046 -6.63401 0
2700 1 19.4455 4.1299 3.22518 -0.902945 -0.364002 -0.290099 0.00487846 -6.63186 0
2693 1 16.2554 0.481485 0.59163 0.114288 0.290413 1.0938 0.0061162 -6.62324 0
2750 1 17.7924 3.21 5.77884 -0.0259424 -0.425059 0.224237 0.001095 -6.6218 0
2753 1 19.4745 0.439358 5.79554 0.13561 -0.558495 -0.637049 0.00347999 -6.62519 0
2749 1 16.2856 0.46738 5.77294 -0.3118 -0.37673 0.605627 0.00286444 -6.61057 0
2699 1 21.0374 1.38998 3.19828 0.170805 -1.11362 -0.86873 0.00956823 -6.62503 0
2703 1 24.2553 1.37964 3.2017 0.0718832 0.200353 -1.0314 0.00524307 -6.63067 0
2704 1 22.7246 4.2025 3.20044 0.183367 0.390459 -0.140283 0.000972703 -6.63645 0
5380 1 25.9229 4.17099 3.19091 0.0978603 0.321341 0.41778 0.00135853 -6.6406 0
61 1 5.17268 0.215002 6.96607 -0.725697 -1.08279 1.43595 0.0177797 -5.689 6
2754 1 21.0509 3.18348 5.8142 -0.857837 -0.538233 0.545544 0.00625522 -6.63723 0
2845 1 22.6078 11.6164 10.9492 -0.265538 -0.425745 0.324773 0.00168883 -6.62786 0
2842 1 21.048 14.4441 10.9542 -1.59484 -0.400711 0.4062 0.0135632 -6.62343 0
2698 1 21.0402 3.23837 0.604554 -0.188381 0.114262 -1.01428 0.00509281 -6.63605 0
19 1 1.6544 6.9906 3.15682 0.336185 0.524994 -0.868382 0.00540207 -6.63561 0
23 1 4.84547 6.9563 3.19312 0.12219 -0.243052 -0.181911 0.000506281 -6.62161 0
24 1 3.19048 9.74979 3.18388 -0.101564 -0.660417 0.443939 0.00304227 -6.61573 0
78 1 4.88175 8.84592 5.75435 -0.971023 0.261081 -0.624152 0.0066212 -6.63184 0
2846 1 24.296 14.44 10.9952 -1.04404 -0.27588 -0.350973 0.00609502 -6.6479 0
18 1 1.67108 8.86683 0.595898 1.17327 -0.308353 -0.0853651 0.00699148 -6.63278 0
29 1 9.74915 6.03017 0.632377 -0.408832 -0.184641 0.305415 0.00139227 -6.63114 0
28 1 6.46781 9.7545 3.22173 0.228561 0.703536 -0.281311 0.00296092 -6.63447 0
27 1 8.12082 6.9579 3.1952 -0.0858282 -1.12378 -0.760526 0.00873924 -6.64063 0
32 1 9.68571 9.75849 3.18894 -0.926874 0.0126183 -0.297691 0.00448093 -6.62483 0
26 1 8.12414 8.8448 0.634101 -0.0176046 -0.0603419 -0.0474441 2.93191e-05 -6.63683 0
81 1 6.48156 6.02248 5.74822 -0.180887 -0.288581 -0.320359 0.00103354 -6.64482 0
85 1 9.80811 6.03944 5.79607 1.06482 0.667082 0.571242 0.00900637 -6.63184 0
2708 1 12.994 9.76921 3.21936 -1.07575 0.52155 -0.283707 0.00713711 -6.63187 0
31 1 11.3307 6.95948 3.16786 0.938915 0.0734514 -0.0174404 0.0041944 -6.63118 0
2707 1 14.5698 6.96395 3.16619 -0.647801 0.746662 -0.448842 0.0055717 -6.63339 0
30 1 11.3507 8.83803 0.643001 0.290121 -0.140897 0.915443 0.00445344 -6.63959 0
2843 1 21.0692 12.5756 13.5123 -0.236151 0.24379 -0.565791 0.00205791 -6.63778 0
2762 1 14.5783 8.83596 5.79021 -0.067809 0.526616 -0.207646 0.00153657 -6.62709 0
2711 1 17.8072 6.97386 3.18204 0.849341 0.218237 1.07549 0.00910343 -6.63139 0
2712 1 16.2021 9.75089 3.18995 -0.956977 -0.216201 0.573566 0.00610549 -6.63565 0
2716 1 19.45 9.76614 3.20665 -0.159808 -0.276703 0.506449 0.0016952 -6.63224 0
2766 1 17.7777 8.84193 5.75666 -0.134514 -0.54833 -0.106597 0.00156061 -6.63304 0
2769 1 19.4549 6.01435 5.77027 -1.30991 0.216676 -0.36946 0.00897874 -6.63641 0
2715 1 21.0347 6.95168 3.24757 0.842801 -0.664468 -0.739717 0.00803183 -6.6238 0
2719 1 24.2906 7.03275 3.19552 0.616413 0.0650556 -0.204042 0.00201305 -6.62166 0
2720 1 22.6663 9.75255 3.17835 -0.972617 0.490549 -0.116066 0.00567326 -6.62848 0
5396 1 25.9112 9.77963 3.1778 -0.144633 -0.980986 0.165401 0.00477751 -6.64165 0
5521 1 25.8823 11.6505 10.9665 0.289591 0.041296 -2.11064 0.0214639 -6.63111 0
2848 1 22.6642 15.3747 13.5695 -0.0547399 0.358536 -0.325275 0.00112203 -6.6298 0
5524 1 25.9071 15.3684 13.5958 0.140998 -0.142443 -0.439747 0.00110406 -6.62739 0
2714 1 21.0438 8.84517 0.63292 0.0548662 0.469413 -0.0735306 0.00108146 -6.63698 0
2847 1 24.2782 12.5702 13.5532 0.147989 -0.383491 -0.510717 0.00203181 -6.6311 0
35 1 1.66074 12.551 3.21906 1.81327 0.206072 1.42974 0.0254074 -6.617 0
39 1 4.84939 12.6085 3.253 0.267611 -1.23992 0.518875 0.00887918 -6.6334 0
40 1 3.20825 15.3509 3.23064 -0.480731 1.05902 0.135478 0.0064811 -6.63388 0
90 1 1.69538 14.4386 5.7911 -0.331657 0.622275 0.219048 0.00257737 -6.61975 0
93 1 3.27539 11.6494 5.80264 0.6013 -0.496644 0.160417 0.00299691 -6.62567 0
45 1 9.75871 11.6098 0.660216 0.3116 -0.410379 0.468325 0.00229198 -6.62442 0
41 1 6.53479 11.6689 0.635584 -0.695329 -0.949898 -0.311162 0.00700882 -6.63212 0
43 1 8.10522 12.5391 3.24752 -0.0217488 -0.393273 -0.0901976 0.000771846 -6.64034 0
44 1 6.48868 15.3729 3.27298 -0.250411 0.407543 -0.934019 0.0052057 -6.62697 0
48 1 9.65263 15.375 3.22501 0.376883 0.421487 0.19173 0.00168508 -6.6144 0
47 1 11.3396 12.5365 3.22742 1.02154 -0.420515 0.678221 0.00794368 -6.62756 0
2724 1 12.9136 15.3677 3.24141 -1.26622 -0.0174028 0.443887 0.00851232 -6.62996 0
2723 1 14.5567 12.5762 3.19807 0.552198 0.905735 0.556262 0.00678235 -6.62717 0
2778 1 14.6019 14.4432 5.82251 0.094636 -0.120548 0.283986 0.000492287 -6.63541 0
102 1 11.3247 14.4296 5.81152 0.196046 0.540811 -0.233947 0.00182307 -6.64076 0
2777 1 12.9606 11.613 5.7839 -0.640736 0.0267557 -0.0650654 0.00196418 -6.63188 0
2727 1 17.8018 12.5937 3.20044 0.7449 -1.18671 0.0515048 0.00929312 -6.63439 0
2728 1 16.121 15.3604 3.23148 -0.449543 0.0605667 -0.547118 0.00238776 -6.6405 0
2732 1 19.3924 15.3856 3.20252 -1.15343 -0.296157 -0.516031 0.00796273 -6.63976 0
2781 1 16.1926 11.6683 5.76342 -0.0812633 0.906748 -0.519727 0.00519494 -6.64129 0
2729 1 19.4424 11.6545 0.647117 -0.0757892 -0.45054 0.335798 0.0015198 -6.63069 0
2726 1 17.782 14.4655 0.605532 -0.35545 0.248931 0.650714 0.00289191 -6.63798 0
2844 1 19.4207 15.3642 13.5363 -0.373702 -0.567125 0.263788 0.0025096 -6.63905 0
2840 1 16.1861 15.3675 13.5216 0.592137 0.816927 -0.327394 0.00531913 -6.63154 0
2731 1 21.0751 12.5871 3.20043 1.07103 -0.0853717 0.0488905 0.00546851 -6.62039 0
2735 1 24.2625 12.5987 3.19987 -0.409096 -0.593254 -0.30975 0.00290852 -6.62617 0
2736 1 22.6438 15.3752 3.19654 -0.429546 0.488833 0.0310572 0.00200644 -6.63156 0
5412 1 25.9056 15.3662 3.24809 -0.983547 -0.585592 0.61009 0.00795373 -6.62391 0
2839 1 17.8054 12.5138 13.5602 0.742068 -0.113856 0.660769 0.00472851 -6.62534 0
2733 1 22.6664 11.6206 0.621524 0.311382 0.209408 -0.315589 0.00113649 -6.63414 0
58 1 1.68397 3.26075 5.74353 -0.265839 -0.254956 1.4264 0.0102597 -6.61881 0
62 1 4.86423 3.15925 5.7715 0.310906 0.113402 -0.667652 0.00262501 -6.69008 0
59 1 1.65784 1.37133 8.32225 -1.05353 0.281328 0.317434 0.00609746 -6.68596 0
64 1 3.20424 4.29664 8.2978 -0.842628 -0.211032 0.215714 0.00378703 -6.58571 1
118 1 4.87084 3.44487 11.2014 -0.714291 0.724953 -0.672059 0.00703162 -6.41162 2
63 1 4.79278 1.85233 8.86247 0.426088 2.20794 0.908079 0.0278022 -6.07269 5
68 1 6.53118 4.22881 8.37171 -0.370371 -0.24867 0.247445 0.00123024 -6.63056 1
67 1 8.06544 1.33034 8.34705 -0.230168 0.501904 0.239291 0.00171198 -6.70416 0
72 1 9.74338 4.19018 8.3842 0.554057 -0.196174 0.231435 0.00188634 -6.63941 0
69 1 9.93073 0.441071 5.81208 -1.91846 -0.45714 -1.39998 0.0276523 -6.50689 1
125 1 9.73564 0.432748 10.9849 0.307602 0.25835 1.42286 0.0103335 -6.6507 0
2746 1 14.6319 3.30262 5.78711 -0.0676488 0.561449 0.0276375 0.00151542 -6.62719 0
2745 1 13.079 0.430193 5.77241 -0.589229 -0.136732 -0.501505 0.00291863 -6.63166 0
70 1 11.3894 3.23669 5.80345 -0.619842 -0.116971 0.322821 0.0023736 -6.63257 0
2748 1 13.0044 4.17066 8.34993 -0.986429 -0.0511144 -0.223824 0.00484909 -6.62875 0
71 1 11.3332 1.34926 8.42027 -0.421496 0.3509 0.197833 0.00160696 -6.63619 0
2747 1 14.5603 1.35776 8.35954 -0.331603 -0.514426 0.681081 0.00396373 -6.63116 0
2801 1 12.9934 0.451398 10.9589 -0.643498 0.441752 0.055632 0.0028947 -6.62298 0
2751 1 17.7868 1.35235 8.3749 0.964377 0.603839 0.162686 0.00624536 -6.64325 0
2752 1 16.2173 4.16596 8.39259 0.116004 0.603763 0.54811 0.00320709 -6.62183 0
2756 1 19.4427 4.12436 8.36017 -1.0236 -0.347488 -0.240683 0.00579774 -6.63397 0
2805 1 16.1821 0.435889 10.9752 0.0764288 0.769756 0.765274 0.00559723 -6.63417 0
5433 1 25.9271 0.481095 5.78967 -0.383535 -0.670003 0.70926 0.00519561 -6.63057 0
2758 1 24.2745 3.22823 5.7677 -0.581104 0.788106 0.369887 0.00517933 -6.61653 0
2757 1 22.7039 0.415374 5.77367 -0.142637 0.247135 -0.620413 0.00220452 -6.63401 0
5436 1 25.9026 4.15611 8.3428 -0.390745 -0.173121 -0.302704 0.00129663 -6.6417 0
2755 1 21.062 1.34127 8.38306 0.362636 -0.634692 -0.133628 0.00261042 -6.61256 0
2759 1 24.2343 1.36633 8.34959 0.50205 1.02664 -0.296328 0.00658922 -6.62029 0
2760 1 22.6977 4.17196 8.35734 -0.599067 0.163529 0.0509639 0.00183525 -6.6284 0
77 1 3.26186 6.04811 5.75028 0.601297 -0.817211 -0.774863 0.00770466 -6.62173 0
74 1 1.6569 8.89293 5.79526 -0.162634 0.0813001 0.60327 0.00187673 -6.63144 0
75 1 1.66077 7.01089 8.31904 0.101212 -0.143255 0.147429 0.000248191 -6.63508 0
79 1 4.86533 6.97453 8.34156 0.800095 0.557977 -0.474603 0.00556286 -6.62739 0
80 1 3.30275 9.76861 8.36616 -0.234321 -0.105177 0.80138 0.00334781 -6.63832 0
134 1 4.88757 8.84032 10.9881 -0.48222 -0.651674 -0.914241 0.00705818 -6.63249 0
82 1 8.13522 8.82381 5.79759 0.42313 0.119108 0.0527683 0.000926609 -6.63561 0
84 1 6.50015 9.74777 8.41878 -0.0999066 -0.24098 0.18473 0.000483032 -6.62737 0
83 1 8.11428 7.01982 8.41259 -0.569377 0.0621444 0.161765 0.00167452 -6.64149 0
88 1 9.76916 9.78426 8.34499 -0.94224 -0.880833 0.182668 0.00802255 -6.63029 0
138 1 8.11988 8.86698 10.9551 0.433446 -0.548011 0.480963 0.00340141 -6.62488 0
141 1 9.71743 6.01796 10.9841 -0.320281 0.542989 0.00679958 0.00187895 -6.6232 0
86 1 11.3415 8.82215 5.81901 -0.0165305 0.1696 -0.0663246 0.000158065 -6.6353 0
87 1 11.3404 6.95497 8.37849 -0.0605904 0.867389 -0.212622 0.00378776 -6.62991 0
2764 1 13.0084 9.74083 8.39804 -0.195324 0.605006 0.418163 0.00273734 -6.62986 0
2761 1 13.0197 6.01831 5.78568 0.0439102 -0.627139 -0.325893 0.00237047 -6.62454 0
2763 1 14.5653 6.93958 8.36748 -0.400915 0.149086 0.0707279 0.000888563 -6.63376 0
142 1 11.3314 8.77278 10.9822 -0.159645 0.356748 -0.0542818 0.000736059 -6.62619 0
2817 1 12.939 6.05338 11.0127 -0.952505 0.307172 0.713757 0.00714336 -6.62625 0
2765 1 16.2149 6.04061 5.73735 0.795678 0.43577 0.134221 0.00397577 -6.62364 0
2767 1 17.7845 6.9499 8.34848 0.754787 -0.0261177 -0.187956 0.00286341 -6.64164 0
2768 1 16.184 9.73311 8.36761 -0.496174 -0.414138 0.937958 0.00613357 -6.6242 0
2772 1 19.414 9.75896 8.34814 -0.832248 -0.648632 -0.928987 0.00934302 -6.64459 0
2821 1 16.1641 5.99331 10.9724 -0.795471 0.398178 0.889488 0.00748108 -6.62808 0
2822 1 17.7919 8.82648 10.9344 0.449593 0.420346 0.0229433 0.00179333 -6.63367 0
2774 1 24.2624 8.85546 5.78455 -0.136177 0.711853 0.890615 0.00623289 -6.62574 0
2770 1 21.0428 8.82141 5.80293 -0.582523 1.04116 0.60768 0.00847434 -6.63435 0
5449 1 25.8937 5.98538 5.75893 -0.402098 -0.489361 -0.477974 0.00297641 -6.63289 0
2773 1 22.7049 6.03313 5.7859 0.157555 1.23589 1.01314 0.0121904 -6.63457 0
2771 1 21.0213 6.91775 8.36635 -0.0574773 -1.36645 -0.14061 0.00893588 -6.63369 0
2775 1 24.2717 6.99243 8.39258 -0.179083 0.235322 0.558724 0.00188914 -6.63502 0
2776 1 22.6667 9.75423 8.37681 -0.348144 -0.760056 0.725847 0.00579451 -6.62616 0
5452 1 25.9067 9.78855 8.3549 -0.529493 0.133585 -0.936933 0.0055596 -6.62895 0
94 1 4.88087 14.4245 5.86817 0.497232 0.540391 -0.272413 0.00290009 -6.63598 0
91 1 1.63764 12.5743 8.35171 1.39325 0.420552 1.19419 0.0167542 -6.63228 0
95 1 4.87231 12.5966 8.41759 0.447814 -0.0124436 -0.208595 0.00115444 -6.62672 0
96 1 3.22022 15.3854 8.40665 -0.119444 0.131543 0.377719 0.000823704 -6.63784 0
150 1 4.89414 14.4194 10.9888 -0.650525 -0.0568944 0.179727 0.00216854 -6.63165 0
146 1 1.62387 14.4625 10.9282 0.287247 -0.601927 -0.0310893 0.00210742 -6.62705 0
97 1 6.52814 11.6058 5.81486 0.0116725 -0.417807 -0.747555 0.00346769 -6.63983 0
101 1 9.75436 11.6205 5.81221 0.847202 -0.502053 0.608596 0.00633558 -6.62023 0
98 1 8.11651 14.4714 5.83819 0.335706 0.125587 -0.547153 0.00202258 -6.63592 0
99 1 8.12786 12.5634 8.39957 0.2171 -0.115637 -0.299 0.000708654 -6.63678 0
100 1 6.5025 15.3544 8.44485 -0.525129 0.180071 -0.714074 0.00386739 -6.62803 0
104 1 9.71836 15.3495 8.4085 1.29033 0.205708 -0.0169835 0.00807221 -6.62961 0
154 1 8.14784 14.4055 10.9921 -0.585208 -0.88395 -0.687591 0.00754777 -6.63195 0
153 1 6.50073 11.643 10.9498 -0.313962 0.205827 -0.266073 0.00100093 -6.62418 0
103 1 11.3703 12.5679 8.37811 0.0961114 0.0789429 0.457047 0.00106064 -6.62546 0
2780 1 12.9758 15.3725 8.40516 -0.200558 -0.423381 0.456611 0.00202316 -6.63276 0
2779 1 14.5495 12.5334 8.40905 1.22765 0.425999 -0.0229502 0.00798509 -6.62651 0
158 1 11.3507 14.4146 10.9818 -0.747574 0.53518 0.333995 0.00452331 -6.63568 0
2834 1 14.5693 14.4479 10.9802 -0.630667 -0.0177555 0.173755 0.00202447 -6.61949 0
2837 1 16.1408 11.6549 10.933 0.306019 0.0340564 0.34604 0.00101426 -6.62906 0
2785 1 19.4468 11.6495 5.75149 -0.188309 0.237919 0.3872 0.00114397 -6.63269 0
2782 1 17.8439 14.4396 5.80094 0.307297 -0.0917306 0.113524 0.000547113 -6.63367 0
2783 1 17.7861 12.5633 8.35747 -0.534376 -1.00739 -0.440612 0.00706521 -6.63582 0
2784 1 16.1841 15.3605 8.41967 -0.845592 0.267407 -0.246064 0.00400444 -6.64043 0
2788 1 19.442 15.4069 8.38314 -1.03001 -0.203271 0.420893 0.00604809 -6.62362 0
2790 1 24.2942 14.4305 5.81207 0.26752 0.5647 0.0598708 0.00186276 -6.63712 0
2786 1 21.0848 14.4376 5.78699 0.0312441 0.220076 -0.167186 0.000365712 -6.62388 0
5465 1 25.9018 11.5952 5.77108 0.421498 0.616299 -0.664209 0.00472102 -6.63328 0
2789 1 22.669 11.6327 5.75961 0.15681 0.751254 0.238931 0.00305415 -6.63056 0
2787 1 21.0487 12.5872 8.36436 0.711139 0.0215282 0.506364 0.00360502 -6.63979 0
2791 1 24.2727 12.5556 8.38447 0.0793785 0.0696324 0.479296 0.0011387 -6.63831 0
2792 1 22.5942 15.3824 8.3712 -0.493398 0.00704963 0.484789 0.00226209 -6.62342 0
5468 1 25.8788 15.3814 8.39066 -1.08895 -0.776242 0.066697 0.00847521 -6.6416 0
117 1 3.24521 0.468312 11.0068 -0.949822 -0.795615 0.890832 0.0110088 -6.60785 1
114 1 1.64022 3.24214 10.948 1.55155 0.376403 0.125507 0.0121244 -6.65926 0
115 1 1.65799 1.39459 13.5703 1.76402 1.14718 -0.07876 0.0209611 -6.62209 0
119 1 4.81287 1.37986 13.5357 1.04919 -0.576572 -0.469728 0.00781844 -6.63827 0
120 1 3.18133 4.16549 13.5986 -0.778789 0.249865 -0.927984 0.00723331 -6.59884 0
121 1 6.49601 0.432615 10.9943 0.891556 -0.15736 0.195678 0.00405571 -6.65747 0
124 1 6.4703 4.16824 13.614 0.876781 1.2658 0.894742 0.0149931 -6.60632 1
122 1 8.1062 3.21753 10.9571 0.274124 -0.14203 -0.368309 0.00109187 -6.67117 0
123 1 8.13978 1.36301 13.5711 0.287742 -0.396532 -0.846223 0.00451995 -6.63596 0
128 1 9.71055 4.16248 13.534 -0.279492 -0.250945 0.258287 0.000982349 -6.62696 0
2838 1 17.8091 14.4296 10.9605 -1.24015 0.745384 0.499834 0.0110781 -6.63566 0
2804 1 12.9501 4.15047 13.5634 -0.326926 0.0703555 -0.313416 0.000993028 -6.63846 0
126 1 11.3484 3.2387 10.9557 -0.414441 0.320966 0.00259677 0.00129902 -6.63488 0
127 1 11.3379 1.36027 13.5217 0.298517 0.242291 -0.0711099 0.000722688 -6.62482 0
2802 1 14.597 3.20889 10.9233 0.562192 0.728897 1.0991 0.0097165 -6.63239 0
2803 1 14.5521 1.37232 13.5548 -0.414465 -0.0532533 0.720993 0.0032829 -6.63006 0
2841 1 19.3588 11.6235 10.9589 -0.491026 -0.208594 -0.593312 0.0030096 -6.63057 0
2806 1 17.8029 3.2382 10.9449 0.294683 0.24684 -0.0416174 0.000706737 -6.62603 0
2809 1 19.4578 0.442139 10.9567 -0.301841 0.303647 0.211287 0.00107761 -6.62279 0
2807 1 17.8142 1.35805 13.4943 0.853534 -0.711419 0.186459 0.00600092 -6.63297 0
2808 1 16.198 4.11091 13.5411 -0.612943 -0.390297 0.696561 0.00478988 -6.63183 0
2812 1 19.4864 4.16247 13.4956 -0.00640788 0.0553155 0.110023 7.18834e-05 -6.63589 0
2713 1 19.4881 6.01596 0.628021 -0.893079 -0.20926 0.164761 0.00224318 -6.63101 0
5489 1 25.9131 0.492786 10.9164 -0.255959 0.429254 -0.42799 0.00204671 -6.64254 0
2813 1 22.6535 0.385028 10.9177 0.0198348 -0.493185 0.445808 0.00209124 -6.62625 0
5492 1 25.9323 4.13084 13.459 0.354106 0.469883 -0.0830073 0.00166909 -6.63375 0
2814 1 24.2766 3.198 10.9204 0.242149 -0.233491 -0.262931 0.000861735 -6.6315 0
2810 1 21.0554 3.2319 10.9226 -0.170633 -0.0276833 0.707466 0.00250734 -6.63348 0
2811 1 21.0637 1.39072 13.505 -0.0149962 -0.126979 1.01423 0.00494011 -6.62564 0
2815 1 24.2836 1.36078 13.5395 -0.06824 -0.109267 -0.273605 0.000432343 -6.62731 0
2816 1 22.6949 4.16418 13.5204 -0.614157 -0.264934 0.427563 0.00297912 -6.62678 0
133 1 3.22869 6.05437 11.0045 1.3085 -0.526286 0.396446 0.0101464 -6.62442 0
130 1 1.5942 8.83955 10.9735 0.205239 0.367432 0.397224 0.00158327 -6.62907 0
131 1 1.64183 6.98856 13.5638 -0.191728 0.336556 0.122693 0.000780404 -6.62402 0
135 1 4.85539 6.95336 13.5353 0.783749 0.00140587 -0.802089 0.00594517 -6.64384 0
136 1 3.24401 9.8109 13.5059 -0.719292 0.497037 -1.33859 0.0120843 -6.62971 0
2835 1 14.6116 12.5798 13.5443 -0.631017 0.313722 0.951806 0.0066303 -6.62937 0
2833 1 12.929 11.6107 10.983 -0.0867153 -0.381067 -0.0707699 0.000745693 -6.6355 0
2836 1 12.9446 15.3338 13.5633 0.346994 0.255212 -0.0268423 0.000880509 -6.62542 0
137 1 6.45981 6.0351 10.9472 -0.628924 -0.1642 -0.607817 0.00374382 -6.61802 0
140 1 6.48021 9.75633 13.5446 0.637281 0.815934 -0.351521 0.00565128 -6.63396 0
144 1 9.7005 9.73958 13.5503 -0.800059 -0.744879 -0.0211997 0.00565102 -6.63293 0
139 1 8.11158 6.9397 13.5464 -0.420852 0.0599008 -0.571685 0.00239926 -6.63755 0
159 1 11.3474 12.5952 13.6163 -0.0761326 0.721341 0.287975 0.00287924 -6.63795 0
25 1 6.47856 6.06697 0.601643 0.718474 -0.175912 -0.212786 0.00252122 -6.64027 0
2694 1 17.8039 3.24921 0.620137 0.0387016 0.12252 0.501776 0.0070887 -6.64101 0
2818 1 14.6001 8.80139 10.9693 0.560559 -0.0246615 -0.770646 0.00429589 -6.63755 0
2820 1 12.9374 9.76455 13.5742 -0.439494 0.444243 -0.339725 0.00239166 -6.64922 0
143 1 11.3279 6.9439 13.537 0.842659 0.160181 0.0208532 0.00348012 -6.61959 0
2819 1 14.587 6.92392 13.5583 -0.419454 -0.754464 0.459207 0.00451948 -6.62495 0
2823 1 17.7757 6.96189 13.5321 0.243452 -0.678369 0.655338 0.00448588 -6.63853 0
2824 1 16.2043 9.75558 13.5481 -0.117641 -0.015461 0.542459 0.00145763 -6.63548 0
2828 1 19.4357 9.75697 13.5321 0.0186271 0.583756 -0.103106 0.00166284 -6.63386 0
2825 1 19.4193 6.04196 10.9303 -1.06268 -0.501517 -0.370417 0.00717619 -6.62406 0
2826 1 21.041 8.80942 10.9317 -0.841891 -0.403361 0.178973 0.00427121 -6.62917 0
5505 1 25.936 6.00177 10.9485 0.69088 0.444435 -1.15861 0.00953608 -6.63928 0
2829 1 22.6492 6.01005 10.9598 0.331019 0.480208 0.330446 0.00212432 -6.63398 0
2830 1 24.2598 8.81064 10.9357 0.0301136 0.28545 -0.361843 0.00100843 -6.62712 0
5508 1 25.9039 9.75762 13.5179 0.153214 -0.637877 0.24821 0.00232571 -6.63367 0
2827 1 21.0047 6.93882 13.5012 0.623882 -0.322185 0.410244 0.00312635 -6.62295 0
2831 1 24.2888 6.95214 13.5366 -0.454581 -0.436579 -0.817907 0.00504038 -6.63937 0
2832 1 22.6776 9.73968 13.5179 -0.228197 -0.839337 0.290474 0.0039754 -6.6352 0
152 1 3.25992 15.3616 13.5391 0.723391 -0.326366 -0.336837 0.00351369 -6.63717 0
149 1 3.26887 11.6788 10.9658 0.0556221 0.203461 0.499381 0.00138924 -6.63014 0
151 1 4.90525 12.5496 13.5505 0.110893 0.014577 0.919362 0.00405482 -6.63112 0
147 1 1.6759 12.557 13.5161 0.551554 0.721072 1.03094 0.00892045 -6.62981 0
186 1 1.60988 14.4393 16.0819 0.288448 1.00451 0.279103 0.00553168 -6.62588 0
157 1 9.7459 11.629 10.9758 0.694968 0.226461 0.55019 0.00395667 -6.6367 0
2697 1 19.4991 0.405635 0.626328 -0.521354 0.447404 -0.40602 0.000860051 -6.63766 0
160 1 9.70462 15.3816 13.5554 -0.164163 0.749659 0.246107 0.00307044 -6.62899 0
156 1 6.48414 15.4331 13.5736 0.173143 -0.570001 -0.226766 0.00192073 -6.6316 0
155 1 8.08788 12.5585 13.5829 0.420906 -0.346318 0.19694 0.00158784 -6.64205 0
2859 1 16.204 0.432069 16.0756 -0.979739 0.990324 0.229055 0.00818837 -6.63416 0
2864 1 24.2962 3.19798 16.0842 0.566482 -0.0333479 0.294677 0.0389408 -6.6234 0
2863 1 22.6897 0.422592 16.0806 -0.36622 0.3433 0.400349 0.00873118 -6.62477 0
2870 1 21.0879 8.80887 16.0736 -0.197219 -0.510662 0.276843 0.00301053 -6.63388 0
2871 1 22.6864 6.01551 16.0786 -0.872916 -0.125307 0.813737 0.00126829 -6.63152 0
5553 1 25.9044 6.01879 16.0774 0.55636 -0.346601 0.527986 0.00280061 -6.63654 0
2861 1 19.4328 0.476122 16.0737 0.150752 -0.572006 0.129562 0.00410582 -6.63728 0
2725 1 16.1903 11.6652 0.591001 0.681826 0.253861 0.529337 0.00103283 -6.62413 0
5 1 3.24614 0.436627 0.635513 -1.36563 -0.03189 -0.802012 0.00346891 -6.63207 0
21 1 3.28341 6.04786 0.623275 0.639162 -0.587894 0.503635 0.00891229 -6.62871 0
2706 1 14.5935 8.84113 0.589187 0.898612 0.72348 -0.801919 0.00658934 -6.62607 0
46 1 11.3351 14.4322 0.665137 0.794039 -0.424622 -0.349766 0.00706939 1.13479 0
2721 1 12.9959 11.6208 0.652025 0.360687 -0.809456 -0.26718 0.0043523 -0.0977457 0
42 1 8.15115 14.4598 0.67413 0.50313 0.00162511 0.427576 0.00214197 0.106984 0
5377 1 25.9717 0.429287 0.641562 0.0955737 -0.650833 -0.929414 0.00250021 0.0299824 0
2734 1 24.2997 14.4267 0.624369 0.682272 1.02208 -0.0606772 0.00257475 -0.0985622 0
2730 1 21.0385 14.4346 0.618549 -0.461761 -0.141965 0.521742 0.00451597 -0.0133224 0
37 1 3.27074 11.6801 0.640851 1.0478 -0.266173 -0.397713 0.010974 0 0
2717 1 22.7171 6.05287 0.627133 0.651545 -0.114261 -0.0927857 0.00766705 0 0
2701 1 22.7136 0.412566 0.600701 0.379517 0.40062 -0.0606523 0.00253294 -0.0154435 0
5393 1 25.9205 6.02568 0.600822 -1.22394 -0.0300761 -0.178275 0.00483351 0 0
2705 1 12.9995 6.03158 0.604568 -0.948492 0.562011 0.421758 0.00182946 0 0
22 1 4.88039 8.89069 0.611081 -1.49435 -0.243161 -0.532188 0.00342275 1.14999 0
2702 1 24.2744 3.22048 0.632573 -0.10477 1.22558 -0.5833 0.0086042 -0.0986123 0
197 1 1.61546 1.32234 18.7462 -0.430151 0.061504 -0.574685 0.00245385 -6.61908 0
199 1 4.85863 1.35433 18.7006 -0.283063 0.864961 -0.248136 0.00420665 -6.62497 0
200 1 3.25964 4.19312 18.6812 0.0919105 -0.686577 -0.727962 0.00477351 -6.62773 0
3011 1 21.0477 12.5973 28.9928 -0.236999 0.426344 0.428942 0.00199461 -6.62969 0
172 1 4.88846 3.20246 16.1586 -1.15067 0.445538 0.141867 0.0072928 -6.62531 0
3010 1 21.0933 14.4581 26.4131 -0.246588 -0.791233 0.0382322 0.00325391 -6.64339 0
230 1 4.82599 3.23387 21.2739 -0.520827 -0.371699 0.595722 0.00361314 -6.64145 0
229 1 3.22752 0.412593 21.2892 0.386623 0.790524 0.471195 0.00471048 -6.63473 0
202 1 6.46821 4.16655 18.6983 -0.134755 0.14568 -1.11955 0.00611137 -6.63106 0
201 1 8.07094 1.34288 18.7763 -1.02468 -0.221159 0.555808 0.00665519 -6.62896 0
204 1 9.76072 4.19576 18.7274 0.702505 0.326987 -0.558299 0.00431197 -6.63161 0
173 1 6.45975 0.45216 16.1145 0.398079 -0.395861 -0.455936 0.00247264 -6.63911 0
174 1 8.09833 3.23301 16.1561 0.344471 0.0272963 0.751112 0.0032315 -6.63065 0
203 1 11.3227 1.35235 18.7063 0.397727 0.180017 -1.00647 0.00568973 -6.63894 0
2886 1 12.9413 4.13903 18.659 0.570367 0.350869 -0.163197 0.00224578 -6.63129 0
2885 1 14.5859 1.33164 18.7127 0.792592 0.296333 0.263638 0.00371342 -6.63099 0
2913 1 12.9103 0.425974 21.342 0.105163 -0.158554 0.739272 0.00275473 -6.62926 0
238 1 11.3509 3.25757 21.3385 0.465619 -0.582393 0.470986 0.00367698 -6.63761 0
2858 1 14.6134 3.23049 16.1371 -0.558963 -0.428261 -0.224675 0.00258268 -6.63189 0
2857 1 12.9275 0.439704 16.1309 0.3408 0.354557 -0.582076 0.00274502 -6.63604 0
2887 1 17.8172 1.37099 18.7069 0.310328 -0.176779 -0.464856 0.00162453 -6.63645 0
2888 1 16.2287 4.17477 18.6905 -0.423583 -0.29439 -0.226528 0.00150047 -6.62504 0
2890 1 19.4278 4.18572 18.678 0.137309 -0.646739 0.0244835 0.00206928 -6.63096 0
189 1 6.47835 11.6259 16.1718 0.550836 0.163432 -0.788402 0.00942207 -6.63497 0
2860 1 17.8159 3.22384 16.1111 0.247795 -0.114064 -0.377156 0.00102423 -6.63067 0
2862 1 21.0442 3.23212 16.0965 0.765595 0.0889652 -0.538847 0.0041809 -6.63383 0
5545 1 25.9575 0.385127 16.0909 -0.240736 -0.261284 0.467726 0.00163089 -6.62111 0
2889 1 21.084 1.35462 18.6423 0.782683 -0.388552 0.281728 0.00398486 -6.64042 0
2891 1 24.3137 1.33608 18.6483 0.267636 -0.12461 -0.772504 0.00323313 -6.62581 0
2892 1 22.6948 4.15969 18.6745 -1.03942 -0.616528 0.686204 0.00913031 -6.63193 0
5574 1 25.8771 4.17976 18.6667 -0.111453 -1.38512 0.771875 0.011945 -6.62117 0
188 1 4.83173 14.4627 16.1087 -0.222204 -0.145539 0.547625 0.00193277 -6.63896 0
2865 1 12.9363 6.05559 16.113 -0.077698 -0.174287 -0.2078 0.00194886 -6.62656 0
179 1 3.25606 6.04128 16.1229 1.15641 0.37328 0.763731 0.00973792 -6.62865 0
205 1 1.63719 6.94524 18.7152 0.576328 -0.38469 1.26343 0.0098158 -6.63569 0
207 1 4.81178 6.94643 18.7252 -1.38257 -0.161581 0.497145 0.0103281 -6.62112 0
208 1 3.2397 9.73893 18.6967 0.288823 0.402855 -1.07051 0.00657906 -6.62981 0
210 1 6.48506 9.77473 18.7392 -0.260968 -0.285335 -0.794289 0.00368929 -6.63631 0
209 1 8.1232 6.98776 18.7103 0.213892 0.367044 -0.223192 0.00108864 -6.63733 0
212 1 9.72284 9.77373 18.7326 -0.32234 -0.11021 0.30669 0.000993254 -6.63212 0
183 1 9.70203 6.00897 16.1456 0.656299 0.070354 -0.470894 0.00310785 -6.63687 0
2866 1 14.5767 8.83144 16.1332 -0.150453 -0.282547 -0.659881 0.0025429 -6.62479 0
211 1 11.3036 6.92934 18.7841 0.114348 -0.17323 -0.123582 0.000275872 -6.61624 0
2894 1 12.9699 9.7566 18.7316 0.39457 0.106221 0.131248 0.00087075 -6.624 0
2893 1 14.5835 6.96009 18.715 -0.162184 -0.936141 -0.594165 0.00593611 -6.63907 0
2868 1 17.8037 8.85664 16.1491 -0.355743 -0.355676 0.392352 0.00192402 -6.6305 0
2895 1 17.8174 6.97892 18.6797 0.689294 0.0282756 0.112623 0.00230983 -6.6305 0
2896 1 16.2149 9.75964 18.6768 0.669424 0.946307 -0.388181 0.00706413 -6.62265 0
2898 1 19.4241 9.7754 18.7146 -0.190221 -0.45701 -0.225471 0.00139872 -6.63341 0
2869 1 19.403 6.03507 16.0939 -0.0661477 -0.88226 0.206747 0.00390244 -6.63393 0
2867 1 16.1844 6.02312 16.1126 0.644738 0.262156 -0.461512 0.00329688 -6.63001 0
182 1 8.09293 8.84082 16.1353 -0.146821 -0.332061 -1.1176 0.00177896 -6.643 0
2872 1 24.3138 8.85899 16.119 0.490614 0.543279 -0.615335 0.00432312 -6.62322 0
181 1 6.47577 6.05452 16.1662 -1.03023 -0.161733 0.215 0.00680669 -6.63571 0
2897 1 21.0614 6.97055 18.6769 0.474578 -0.530879 -0.760158 0.00512869 -6.64146 0
2899 1 24.277 6.9611 18.6568 -0.0976578 0.0625424 0.373028 0.000721387 -6.62675 0
2900 1 22.6905 9.75985 18.7009 -0.713187 -0.515752 0.450169 0.00461999 -6.6319 0
5582 1 25.88 9.77103 18.7085 0.145152 0.468883 0.929776 0.00522563 -6.62375 0
180 1 4.87024 8.85107 16.1459 0.147697 -0.358738 0.32501 0.00334904 -6.62796 0
213 1 1.6123 12.5905 18.6857 0.624029 0.0749619 0.27413 0.0022227 -6.61788 0
215 1 4.88589 12.5617 18.7059 -0.670355 -0.0674794 -0.215103 0.00236462 -6.63002 0
216 1 3.25981 15.3854 18.7165 -0.6208 -0.0995542 0.502664 0.00306321 -6.63898 0
261 1 3.22845 11.6634 21.2151 -1.04559 0.334056 -0.627055 0.00755457 -6.63683 0
190 1 8.06814 14.4562 16.1248 -0.131788 0.578412 0.0568529 0.00167897 -6.63753 0
217 1 8.0823 12.5661 18.7046 -0.0134357 -0.0131099 0.194688 0.000180848 -6.62183 0
218 1 6.47692 15.3997 18.702 -0.506593 -0.577051 -0.83584 0.00609002 -6.63467 0
220 1 9.70021 15.415 18.7444 -0.382074 -0.476883 -0.381317 0.00245255 -6.62877 0
269 1 9.71822 11.6913 21.3006 0.409085 0.305208 0.620784 0.00305328 -6.63068 0
265 1 6.46706 11.6568 21.3296 -0.160007 -0.568969 0.600457 0.00335584 -6.63357 0
191 1 9.71457 11.6169 16.1593 -0.245742 -0.37574 0.0897938 0.000991007 -6.6304 0
219 1 11.2953 12.6136 18.7246 0.860577 0.0448682 -0.898556 0.00732743 -6.63124 0
2902 1 12.945 15.3876 18.7599 -0.0312263 0.190818 -0.715004 0.00259351 -6.63596 0
2901 1 14.5275 12.5887 18.7137 0.637086 0.881581 -0.299557 0.00601696 -6.63314 0
2873 1 12.9938 11.6189 16.1798 0.105674 0.518724 -0.306247 0.00176817 -6.62915 0
2876 1 17.8205 14.4522 16.1465 -0.225477 -0.208175 0.0235931 0.000447838 -6.64161 0
2903 1 17.7909 12.5568 18.7214 0.275709 0.515201 -0.615816 0.00340689 -6.63561 0
2904 1 16.2242 15.3641 18.7421 -0.99506 0.182411 -0.222812 0.00507275 -6.64138 0
2906 1 19.4873 15.3592 18.7362 -0.407042 -0.324096 0.51134 0.00251585 -6.63545 0
2877 1 19.4564 11.6377 16.1199 0.156833 -0.3975 -0.233495 0.00112096 -6.64226 0
2880 1 24.2672 14.4611 16.1221 0.491653 -0.132394 0.229861 0.00147535 -6.63142 0
2905 1 21.1094 12.5617 18.6924 0.323865 0.0558018 0.239118 0.000780863 -6.62574 0
2907 1 24.2816 12.5611 18.6869 -0.226209 0.517749 0.315239 0.00197891 -6.61999 0
2879 1 22.7048 11.6423 16.1318 0.592592 0.329939 0.163019 0.00230033 -6.62923 0
5590 1 25.8827 15.3716 18.7315 -1.16642 -0.480962 -0.760171 0.010257 -6.64843 0