ITEM: TIMESTEP
110
ITEM: NUMBER OF ATOMS
10752
ITEM: BOX BOUNDS pp pp pp
1.4089166720235069e-01 5.1881097026587760e+01
2.1354805772561464e-01 7.8628097527266689e+01
5.8561495130484320e-01 6.2600367726161984e+01
ITEM: ATOMS id type x y z vx vy vz c_EnergyKinAtom c_EnergyPotAtom c_ComputeNeighbor
3 1 1.52222 1.37795 3.02546 -0.317604 0.0251254 -0.339498 0.00102471 -6.51482 1
7 1 4.8578 1.36086 3.16877 -0.201474 0.454818 -1.7772 0.0161009 -6.64626 0
8 1 3.24882 4.15072 3.19284 1.08699 0.212325 0.384579 0.00649784 -6.64624 0
1 1 2.83485 0.519839 5.52013 -1.58308 0.426108 -0.558483 0.0141802 -6.34835 3
58 1 1.6164 3.26324 5.77485 -0.265839 -0.254956 1.4264 0.0102597 -6.60612 0
5 1 3.23564 0.42693 0.624045 -1.36563 -0.03189 -0.802012 0.0118619 -6.57992 0
12 1 6.48701 4.17111 3.18933 0.282816 -0.947687 -1.11401 0.0104905 -6.6704 0
11 1 8.23881 1.4485 2.99709 0.813824 0.0993658 -0.93319 0.00729442 -6.46622 1
16 1 9.73939 4.18899 3.19459 0.63629 -0.335443 -0.548384 0.0038675 -6.6289 0
65 1 6.99349 0.593575 5.36791 -1.88234 0.448106 0.893465 0.0214729 -6.11779 4
15 1 11.3728 1.37435 3.1905 1.47766 -0.299856 0.0512054 0.0107596 -6.62931 0
2692 1 12.9704 4.17548 3.1998 -0.699784 0.014333 -0.163956 0.00244302 -6.63231 0
2691 1 14.5949 1.37377 3.19872 -0.887622 0.369557 0.78263 0.00726572 -6.63414 0
2695 1 17.8219 1.37219 3.2028 0.584386 1.38801 0.408923 0.0115125 -6.63416 0
2696 1 16.2033 4.1741 3.20245 0.324432 1.43079 0.392822 0.0109046 -6.63392 0
2700 1 19.4355 4.17272 3.20396 -0.902945 -0.364002 -0.290099 0.00487846 -6.63434 0
2693 1 16.2058 0.437029 0.61629 0.114288 0.290413 1.0938 0.0061162 -6.63459 0
2694 1 17.8186 3.23878 0.618439 0.0387016 0.12252 0.501776 0.00126829 -6.63526 0
2697 1 19.4364 0.437128 0.619085 -0.521354 0.447404 -0.40602 0.00301053 -6.63459 0
2699 1 21.0526 1.37141 3.20424 0.170805 -1.11362 -0.86873 0.00956823 -6.63457 0
2703 1 24.2848 1.37105 3.20481 0.0718832 0.200353 -1.0314 0.00524307 -6.63465 0
2704 1 22.6681 4.172 3.20467 0.183367 0.390459 -0.140283 0.000972703 -6.63456 0
5380 1 25.9011 4.17164 3.205 0.0978603 0.321341 0.41778 0.00135853 -6.63464 0
2698 1 21.0515 3.2382 0.619929 -0.188381 0.114262 -1.01428 0.00509281 -6.63487 0
5377 1 25.9014 0.437083 0.620797 0.0955737 -0.650833 -0.929414 0.00612915 -6.63471 0
2701 1 22.6685 0.437101 0.620258 0.379517 0.40062 -0.0606523 0.00145701 -6.63467 0
2702 1 24.2845 3.23792 0.620638 -0.10477 1.22558 -0.5833 0.00876102 -6.63479 0
19 1 1.64624 6.96911 3.20158 0.336185 0.524994 -0.868382 0.00540207 -6.63763 0
23 1 4.87562 6.96335 3.19864 0.12219 -0.243052 -0.181911 0.000506281 -6.62885 0
24 1 3.26311 9.77181 3.20228 -0.101564 -0.660417 0.443939 0.00304227 -6.63463 0
18 1 1.64446 8.83741 0.619519 1.17327 -0.308353 -0.0853651 0.00699148 -6.63505 0
77 1 3.2717 6.02159 5.77393 0.601297 -0.817211 -0.774863 0.00770466 -6.63753 0
21 1 3.26128 6.03941 0.617074 0.639162 -0.587894 0.503635 0.0047642 -6.62262 0
22 1 4.87855 8.83928 0.618036 -1.49435 -0.243161 -0.532188 0.012175 -6.63524 0
29 1 9.73422 6.04712 0.611707 -0.408832 -0.184641 0.305415 0.00139227 -6.63206 0
28 1 6.49484 9.77009 3.2024 0.228561 0.703536 -0.281311 0.00296092 -6.63416 0
27 1 8.10987 6.96837 3.20165 -0.0858282 -1.12378 -0.760526 0.00873924 -6.64058 0
32 1 9.72946 9.77197 3.20311 -0.926874 0.0126183 -0.297691 0.00448093 -6.63613 0
26 1 8.11313 8.83975 0.618328 -0.0176046 -0.0603419 -0.0474441 2.93191e-05 -6.63386 0
81 1 6.48272 6.0245 5.77998 -0.180887 -0.288581 -0.320359 0.00103354 -6.63921 0
25 1 6.4919 6.04073 0.613142 0.718474 -0.175912 -0.212786 0.00280061 -6.63016 0
2708 1 12.9662 9.77512 3.20354 -1.07575 0.52155 -0.283707 0.00713711 -6.63477 0
31 1 11.352 6.97913 3.20031 0.938915 0.0734514 -0.0174404 0.0041944 -6.63592 0
2707 1 14.5846 6.97447 3.20273 -0.647801 0.746662 -0.448842 0.0055717 -6.6343 0
30 1 11.3494 8.84312 0.617382 0.290121 -0.140897 0.915443 0.00445344 -6.6342 0
2706 1 14.583 8.84083 0.618964 0.898612 0.72348 -0.801919 0.00933179 -6.635 0
2705 1 12.9666 6.04091 0.616499 -0.948492 0.562011 0.421758 0.00658697 -6.63578 0
2710 1 17.8166 8.84 0.619917 0.543337 -0.631066 0.200838 0.00346891 -6.63483 0
2711 1 17.8178 6.97354 3.20384 0.849341 0.218237 1.07549 0.00910343 -6.63459 0
2712 1 16.1999 9.77385 3.20422 -0.956977 -0.216201 0.573566 0.00610549 -6.63457 0
2716 1 19.4335 9.77335 3.20465 -0.159808 -0.276703 0.506449 0.0016952 -6.63466 0
2765 1 16.2011 6.04069 5.78819 0.795678 0.43577 0.134221 0.00397577 -6.63472 0
2713 1 19.434 6.03918 0.619772 -0.893079 -0.20926 0.164761 0.00410582 -6.6349 0
2715 1 21.0509 6.9728 3.20457 0.842801 -0.664468 -0.739717 0.00803183 -6.6346 0
2719 1 24.2841 6.97235 3.20495 0.616413 0.0650556 -0.204042 0.00201305 -6.63464 0
2720 1 22.667 9.77295 3.20496 -0.972617 0.490549 -0.116066 0.00567326 -6.63466 0
5396 1 25.9006 9.77268 3.20516 -0.144633 -0.980986 0.165401 0.00477751 -6.63468 0
2714 1 21.0502 8.83951 0.620539 0.0548662 0.469413 -0.0735306 0.00108146 -6.63481 0
2717 1 22.6674 6.03875 0.620531 0.651545 -0.114261 -0.0927857 0.00210923 -6.63482 0
5393 1 25.9009 6.0385 0.62094 -1.22394 -0.0300761 -0.178275 0.0072362 -6.63477 0
38 1 4.88002 14.4401 0.620431 0.15397 1.0586 -0.499537 0.00658934 -6.63474 0
34 1 1.64631 14.4404 0.620568 -1.13675 0.171096 0.750858 0.00891229 -6.63472 0
35 1 1.64642 12.5736 3.20398 1.81327 0.206072 1.42974 0.0254074 -6.63459 0
39 1 4.87987 12.5729 3.20377 0.267611 -1.23992 0.518875 0.00887918 -6.6344 0
40 1 3.26333 15.374 3.20459 -0.480731 1.05902 0.135478 0.0064811 -6.63462 0
37 1 3.26254 11.6395 0.619758 1.0478 -0.266173 -0.397713 0.00627278 -6.63471 0
45 1 9.73068 11.6403 0.619727 0.3116 -0.410379 0.468325 0.00229198 -6.63442 0
41 1 6.49655 11.6395 0.619617 -0.695329 -0.949898 -0.311162 0.00700882 -6.63494 0
43 1 8.11313 12.5724 3.20385 -0.0217488 -0.393273 -0.0901976 0.000771846 -6.63475 0
44 1 6.49699 15.3736 3.20453 -0.250411 0.407543 -0.934019 0.0052057 -6.63464 0
48 1 9.73066 15.3734 3.20462 0.376883 0.421487 0.19173 0.00168508 -6.63478 0
42 1 8.11381 14.4402 0.620426 0.50313 0.00162511 0.427576 0.00206095 -6.63477 0
2722 1 14.5821 14.441 0.620652 -0.00545769 -0.460338 0.0808539 0.00103283 -6.63461 0
47 1 11.3475 12.5731 3.20424 1.02154 -0.420515 0.678221 0.00794368 -6.63502 0
2724 1 12.9647 15.3737 3.20482 -1.26622 -0.0174028 0.443887 0.00851232 -6.63481 0
2723 1 14.5823 12.5741 3.20458 0.552198 0.905735 0.556262 0.00678235 -6.63478 0
46 1 11.3479 14.4406 0.620541 0.794039 -0.424622 -0.349766 0.00441127 -6.63458 0
2721 1 12.9655 11.6415 0.619718 0.360687 -0.809456 -0.26718 0.00404992 -6.63444 0
2727 1 17.8161 12.5737 3.20486 0.7449 -1.18671 0.0515048 0.00929312 -6.63468 0
2728 1 16.1989 15.374 3.20502 -0.449543 0.0605667 -0.547118 0.00238776 -6.63474 0
2732 1 19.4327 15.3738 3.20516 -1.15343 -0.296157 -0.516031 0.00796273 -6.6347 0
2729 1 19.433 11.6401 0.620692 -0.0757892 -0.45054 0.335798 0.0015198 -6.63475 0
2726 1 17.8159 14.4407 0.620902 -0.35545 0.248931 0.650714 0.00289191 -6.6347 0
2785 1 19.4328 11.64 5.7891 -0.188309 0.237919 0.3872 0.00114397 -6.63471 0
2725 1 16.1993 11.6406 0.620294 0.681826 0.253861 0.529337 0.00382693 -6.63471 0
2731 1 21.0499 12.5734 3.20505 1.07103 -0.0853717 0.0488905 0.00546851 -6.63469 0
2735 1 24.2835 12.5732 3.2052 -0.409096 -0.593254 -0.30975 0.00290852 -6.63469 0
2736 1 22.6665 15.3737 3.20526 -0.429546 0.488833 0.0310572 0.00200644 -6.6347 0
5412 1 25.9002 15.3735 3.20534 -0.983547 -0.585592 0.61009 0.00795373 -6.6347 0
2733 1 22.6667 11.6398 0.620987 0.311382 0.209408 -0.315589 0.00113649 -6.63475 0
2734 1 24.2834 14.4402 0.621245 0.682272 1.02208 -0.0606772 0.0071564 -6.63473 0
2730 1 21.0497 14.4404 0.621095 -0.461761 -0.141965 0.521742 0.00239011 -6.63472 0
2847 1 24.2828 12.5729 13.5413 0.147989 -0.383491 -0.510717 0.0177797 -5.75806 6
62 1 4.87486 3.1416 5.80282 0.310906 0.113402 -0.667652 0.00262501 -6.70847 0
59 1 1.64345 1.36461 8.36458 -1.05353 0.281328 0.317434 0.00609746 -6.69008 0
64 1 3.18976 4.28982 8.35687 -0.842628 -0.211032 0.215714 0.00378703 -6.56479 1
63 1 4.78728 1.91088 8.81414 0.426088 2.20794 0.908079 0.0278022 -6.07728 4
66 1 8.14644 3.29613 5.78493 0.641712 -0.244281 -0.748156 0.00487487 -6.61677 1
68 1 6.53081 4.24564 8.36545 -0.370371 -0.24867 0.247445 0.00123024 -6.60747 1
67 1 8.01709 1.32374 8.34099 -0.230168 0.501904 0.239291 0.00171198 -6.70749 0
72 1 9.72045 4.15286 8.37358 0.554057 -0.196174 0.231435 0.00188634 -6.64029 0
69 1 9.86817 0.439853 5.7923 -1.91846 -0.45714 -1.39998 0.0276523 -6.56467 1
2746 1 14.5879 3.24258 5.78727 -0.0676488 0.561449 0.0276375 0.00151542 -6.63354 0
2745 1 13.008 0.43943 5.78924 -0.589229 -0.136732 -0.501505 0.00291863 -6.63332 0
70 1 11.3554 3.24555 5.78251 -0.619842 -0.116971 0.322821 0.0023736 -6.62786 0
2748 1 12.9603 4.16911 8.37251 -0.986429 -0.0511144 -0.223824 0.00484909 -6.63638 0
71 1 11.3246 1.37352 8.37903 -0.421496 0.3509 0.197833 0.00160696 -6.6337 0
2747 1 14.579 1.37392 8.37608 -0.331603 -0.514426 0.681081 0.00396373 -6.63119 0
2750 1 17.8191 3.23979 5.78853 -0.0259424 -0.425059 0.224237 0.001095 -6.63444 0
2753 1 19.4375 0.437646 5.78899 0.13561 -0.558495 -0.637049 0.00347999 -6.63514 0
2749 1 16.2124 0.438304 5.78901 -0.3118 -0.37673 0.605627 0.00286444 -6.63595 0
2751 1 17.8164 1.37233 8.37419 0.964377 0.603839 0.162686 0.00624536 -6.63373 0
2752 1 16.198 4.17207 8.37336 0.116004 0.603763 0.54811 0.00320709 -6.63465 0
2756 1 19.4329 4.17208 8.37338 -1.0236 -0.347488 -0.240683 0.00579774 -6.63455 0
2754 1 21.0512 3.23856 5.78895 -0.857837 -0.538233 0.545544 0.00625522 -6.63475 0
5433 1 25.9009 0.43719 5.78918 -0.383535 -0.670003 0.70926 0.00519561 -6.63474 0
2758 1 24.2841 3.23806 5.78913 -0.581104 0.788106 0.369887 0.00517933 -6.63477 0
2757 1 22.6684 0.43733 5.78909 -0.142637 0.247135 -0.620413 0.00220452 -6.63482 0
5436 1 25.9002 4.17155 8.37333 -0.390745 -0.173121 -0.302704 0.00129663 -6.63466 0
2755 1 21.0503 1.37145 8.37355 0.362636 -0.634692 -0.133628 0.00261042 -6.63446 0
2759 1 24.2837 1.37106 8.37338 0.50205 1.02664 -0.296328 0.00658922 -6.63463 0
2760 1 22.6667 4.17176 8.37334 -0.599067 0.163529 0.0509639 0.00183525 -6.63462 0
5489 1 25.8999 0.437178 10.9574 -0.255959 0.429254 -0.42799 0.00204671 -6.63474 0
2813 1 22.6663 0.437274 10.9574 0.0198348 -0.493185 0.445808 0.00209124 -6.63476 0
2814 1 24.283 3.23786 10.9574 0.242149 -0.233491 -0.262931 0.000861735 -6.63475 0
78 1 4.87828 8.83501 5.78631 -0.971023 0.261081 -0.624152 0.0066212 -6.63645 0
74 1 1.64884 8.83956 5.78388 -0.162634 0.0813001 0.60327 0.00187673 -6.63145 0
75 1 1.62417 7.01038 8.36926 0.101212 -0.143255 0.147429 0.000248191 -6.63294 0
79 1 4.87818 6.98197 8.37417 0.800095 0.557977 -0.474603 0.00556286 -6.62915 0
80 1 3.26261 9.78074 8.37291 -0.234321 -0.105177 0.80138 0.00334781 -6.63368 0
85 1 9.74018 6.05776 5.78799 1.06482 0.667082 0.571242 0.00900637 -6.63941 0
82 1 8.10938 8.83905 5.78473 0.42313 0.119108 0.0527683 0.000926609 -6.63161 0
84 1 6.49637 9.77816 8.37256 -0.0999066 -0.24098 0.18473 0.000483032 -6.63484 0
83 1 8.12511 6.99446 8.36958 -0.569377 0.0621444 0.161765 0.00167452 -6.63858 0
88 1 9.73407 9.7786 8.3716 -0.94224 -0.880833 0.182668 0.00802255 -6.63625 0
2762 1 14.5829 8.84077 5.78856 -0.067809 0.526616 -0.207646 0.00153657 -6.63455 0
86 1 11.3498 8.8446 5.78869 -0.0165305 0.1696 -0.0663246 0.000158065 -6.63614 0
87 1 11.3483 6.96834 8.3742 -0.0605904 0.867389 -0.212622 0.00378776 -6.63197 0
2764 1 12.9655 9.77219 8.37341 -0.195324 0.605006 0.418163 0.00273734 -6.63397 0
2761 1 12.9684 6.04217 5.7873 0.0439102 -0.627139 -0.325893 0.00237047 -6.6347 0
2763 1 14.5814 6.97112 8.3732 -0.400915 0.149086 0.0707279 0.000888563 -6.63496 0
2766 1 17.8165 8.84006 5.7888 -0.134514 -0.54833 -0.106597 0.00156061 -6.63469 0
2769 1 19.4339 6.03951 5.78877 -1.30991 0.216676 -0.36946 0.00897874 -6.63475 0
2767 1 17.8156 6.97219 8.37326 0.754787 -0.0261177 -0.187956 0.00286341 -6.63476 0
2768 1 16.1987 9.77235 8.37323 -0.496174 -0.414138 0.937958 0.00613357 -6.63471 0
2772 1 19.4325 9.7726 8.37326 -0.832248 -0.648632 -0.928987 0.00934302 -6.63472 0
2774 1 24.2835 8.83918 5.78918 -0.136177 0.711853 0.890615 0.00623289 -6.63474 0
2770 1 21.0499 8.83952 5.78903 -0.582523 1.04116 0.60768 0.00847434 -6.63473 0
5449 1 25.9004 6.03855 5.78919 -0.402098 -0.489361 -0.477974 0.00297641 -6.63476 0
2773 1 22.6671 6.03886 5.78905 0.157555 1.23589 1.01314 0.0121904 -6.63477 0
2771 1 21.0496 6.97226 8.37328 -0.0574773 -1.36645 -0.14061 0.00893588 -6.63468 0
2775 1 24.2833 6.97212 8.3733 -0.179083 0.235322 0.558724 0.00188914 -6.63468 0
2776 1 22.6663 9.7726 8.37329 -0.348144 -0.760056 0.725847 0.00579451 -6.63469 0
5452 1 25.9 9.77253 8.37331 -0.529493 0.133585 -0.936933 0.0055596 -6.63469 0
90 1 1.64647 14.4415 5.78857 -0.331657 0.622275 0.219048 0.00257737 -6.63455 0
93 1 3.2634 11.6403 5.78765 0.6013 -0.496644 0.160417 0.00299691 -6.63475 0
94 1 4.88004 14.4409 5.78845 0.497232 0.540391 -0.272413 0.00290009 -6.63478 0
91 1 1.64556 12.5776 8.37304 1.39325 0.420552 1.19419 0.0167542 -6.63443 0
95 1 4.88009 12.5768 8.37308 0.447814 -0.0124436 -0.208595 0.00115444 -6.63476 0
96 1 3.26318 15.3758 8.37323 -0.119444 0.131543 0.377719 0.000823704 -6.63476 0
97 1 6.49571 11.6395 5.78752 0.0116725 -0.417807 -0.747555 0.00346769 -6.63492 0
101 1 9.72976 11.6406 5.78748 0.847202 -0.502053 0.608596 0.00633558 -6.63389 0
98 1 8.11353 14.4405 5.78844 0.335706 0.125587 -0.547153 0.00202258 -6.63469 0
99 1 8.11413 12.5754 8.37268 0.2171 -0.115637 -0.299 0.000708654 -6.6346 0
100 1 6.49727 15.3753 8.37311 -0.525129 0.180071 -0.714074 0.00386739 -6.63471 0
104 1 9.73116 15.3746 8.37296 1.29033 0.205708 -0.0169835 0.00807221 -6.63474 0
2778 1 14.5819 14.4408 5.78906 0.094636 -0.120548 0.283986 0.000492287 -6.63477 0
102 1 11.3476 14.4408 5.78856 0.196046 0.540811 -0.233947 0.00182307 -6.63452 0
2777 1 12.9653 11.6414 5.78886 -0.640736 0.0267557 -0.0650654 0.00196418 -6.63509 0
103 1 11.3489 12.5749 8.37261 0.0961114 0.0789429 0.457047 0.00106064 -6.63514 0
2780 1 12.9652 15.3742 8.37302 -0.200558 -0.423381 0.456611 0.00202316 -6.63479 0
2779 1 14.5821 12.5732 8.37324 1.22765 0.425999 -0.0229502 0.00798509 -6.63455 0
2781 1 16.199 11.6403 5.78898 -0.0812633 0.906748 -0.519727 0.00519494 -6.63471 0
2782 1 17.8157 14.4404 5.78918 0.307297 -0.0917306 0.113524 0.000547113 -6.63471 0
2783 1 17.8156 12.573 8.37327 -0.534376 -1.00739 -0.440612 0.00706521 -6.6347 0
2784 1 16.1988 15.3737 8.37326 -0.845592 0.267407 -0.246064 0.00400444 -6.63467 0
2788 1 19.4324 15.3735 8.37331 -1.03001 -0.203271 0.420893 0.00604809 -6.6347 0
2790 1 24.2832 14.4401 5.78931 0.26752 0.5647 0.0598708 0.00186276 -6.63472 0
2786 1 21.0494 14.4402 5.78925 0.0312441 0.220076 -0.167186 0.000365712 -6.63471 0
5465 1 25.9001 11.6396 5.78928 0.421498 0.616299 -0.664209 0.00472102 -6.63473 0
2789 1 22.6664 11.6397 5.7892 0.15681 0.751254 0.238931 0.00305415 -6.63472 0
2787 1 21.0493 12.573 8.3733 0.711139 0.0215282 0.506364 0.00360502 -6.63471 0
2791 1 24.2831 12.573 8.37332 0.0793785 0.0696324 0.479296 0.0011387 -6.6347 0
2792 1 22.6662 15.3735 8.37333 -0.493398 0.00704963 0.484789 0.00226209 -6.63471 0
5468 1 25.8999 15.3734 8.37335 -1.08895 -0.776242 0.066697 0.00847521 -6.6347 0
118 1 4.88087 3.40174 11.1761 -0.714291 0.724953 -0.672059 0.00703162 -6.44592 1
117 1 3.24362 0.429022 10.9852 -0.949822 -0.795615 0.890832 0.0110088 -6.63748 0
114 1 1.63537 3.25092 10.9751 1.55155 0.376403 0.125507 0.0121244 -6.66408 0
115 1 1.63413 1.37608 13.5602 1.76402 1.14718 -0.07876 0.0209611 -6.6381 0
119 1 4.87565 1.37389 13.5401 1.04919 -0.576572 -0.469728 0.00781844 -6.64994 0
120 1 3.22997 4.20058 13.6089 -0.778789 0.249865 -0.927984 0.00723331 -6.6083 0
125 1 9.71822 0.437264 10.9496 0.307602 0.25835 1.42286 0.0103335 -6.66181 0
121 1 6.4909 0.431754 10.9762 0.891556 -0.15736 0.195678 0.00405571 -6.66261 0
124 1 6.52712 4.19893 13.607 0.876781 1.2658 0.894742 0.0149931 -6.60769 0
122 1 8.11545 3.23976 10.9652 0.274124 -0.14203 -0.368309 0.00109187 -6.66911 0
123 1 8.11701 1.37294 13.5562 0.287742 -0.396532 -0.846223 0.00451995 -6.64132 0
128 1 9.73568 4.17327 13.5461 -0.279492 -0.250945 0.258287 0.000982349 -6.6303 0
2801 1 12.9595 0.437311 10.9564 -0.643498 0.441752 0.055632 0.0028947 -6.63757 0
2804 1 12.9651 4.17127 13.5421 -0.326926 0.0703555 -0.313416 0.000993028 -6.63504 0
126 1 11.3419 3.23624 10.9584 -0.414441 0.320966 0.00259677 0.00129902 -6.62917 0
127 1 11.3465 1.37059 13.5407 0.298517 0.242291 -0.0711099 0.000722688 -6.6336 0
2802 1 14.5797 3.23819 10.9579 0.562192 0.728897 1.0991 0.0097165 -6.63422 0
2803 1 14.5809 1.37061 13.5411 -0.414465 -0.0532533 0.720993 0.0032829 -6.63473 0
2805 1 16.1974 0.437611 10.9576 0.0764288 0.769756 0.765274 0.00559723 -6.63535 0
2806 1 17.8149 3.2382 10.9576 0.294683 0.24684 -0.0416174 0.000706737 -6.63466 0
2809 1 19.4323 0.437424 10.9575 -0.301841 0.303647 0.211287 0.00107761 -6.63484 0
2807 1 17.8154 1.37085 13.5414 0.853534 -0.711419 0.186459 0.00600092 -6.63463 0
2808 1 16.1983 4.17125 13.5416 -0.612943 -0.390297 0.696561 0.00478988 -6.6348 0
2812 1 19.4322 4.17137 13.5415 -0.00640788 0.0553155 0.110023 7.18834e-05 -6.63472 0
5524 1 25.8997 15.3734 13.5413 0.140998 -0.142443 -0.439747 0.00942207 -6.6349 0
2848 1 22.666 15.3734 13.5413 -0.0547399 0.358536 -0.325275 0.00173354 -6.63481 0
5492 1 25.8997 4.17136 13.5414 0.354106 0.469883 -0.0830073 0.00166909 -6.63469 0
2810 1 21.0491 3.238 10.9575 -0.170633 -0.0276833 0.707466 0.00250734 -6.63476 0
2811 1 21.0493 1.37085 13.5414 -0.0149962 -0.126979 1.01423 0.00494011 -6.63465 0
2815 1 24.283 1.37081 13.5414 -0.06824 -0.109267 -0.273605 0.000432343 -6.63467 0
2816 1 22.666 4.17137 13.5414 -0.614157 -0.264934 0.427563 0.00297912 -6.6347 0
5521 1 25.8998 11.6394 10.9573 0.289591 0.041296 -2.11064 0.00193277 -6.63472 0
2843 1 21.0491 12.5729 13.5413 -0.236151 0.24379 -0.565791 0.00194886 -6.63475 0
134 1 4.87924 8.84652 10.9597 -0.48222 -0.651674 -0.914241 0.00705818 -6.63238 0
133 1 3.25062 6.06269 10.9663 1.3085 -0.526286 0.396446 0.0101464 -6.6301 0
130 1 1.64104 8.85216 10.9615 0.205239 0.367432 0.397224 0.00158327 -6.6345 0
131 1 1.63811 6.98422 13.5507 -0.191728 0.336556 0.122693 0.000780404 -6.63284 0
135 1 4.87905 6.98581 13.5565 0.783749 0.00140587 -0.802089 0.00594517 -6.64643 0
136 1 3.26188 9.77685 13.5451 -0.719292 0.497037 -1.33859 0.0120843 -6.63629 0
138 1 8.11727 8.84881 10.9599 0.433446 -0.548011 0.480963 0.00340141 -6.63549 0
141 1 9.72834 6.03679 10.9562 -0.320281 0.542989 0.00679958 0.00187895 -6.64115 0
137 1 6.50598 6.05986 10.9634 -0.628924 -0.1642 -0.607817 0.00374382 -6.62831 0
140 1 6.49723 9.776 13.5444 0.637281 0.815934 -0.351521 0.00565128 -6.63617 0
144 1 9.73331 9.7769 13.5439 -0.800059 -0.744879 -0.0211997 0.00565102 -6.63436 0
139 1 8.11889 6.98177 13.5487 -0.420852 0.0599008 -0.571685 0.00239926 -6.63223 0
142 1 11.3475 8.8389 10.9573 -0.159645 0.356748 -0.0542818 0.000736059 -6.63622 0
2817 1 12.9631 6.0374 10.9576 -0.952505 0.307172 0.713757 0.00714336 -6.63425 0
2818 1 14.5812 8.83859 10.9574 0.560559 -0.0246615 -0.770646 0.00429589 -6.63476 0
2820 1 12.9653 9.77328 13.5417 -0.439494 0.444243 -0.339725 0.00239166 -6.63451 0
143 1 11.3486 6.97334 13.5421 0.842659 0.160181 0.0208532 0.00348012 -6.63422 0
2819 1 14.5815 6.97197 13.5416 -0.419454 -0.754464 0.459207 0.00451948 -6.63472 0
2821 1 16.1979 6.03842 10.9575 -0.795471 0.398178 0.889488 0.00748108 -6.63433 0
2822 1 17.8152 8.83892 10.9574 0.449593 0.420346 0.0229433 0.00179333 -6.63463 0
2823 1 17.8152 6.97185 13.5415 0.243452 -0.678369 0.655338 0.00448588 -6.63472 0
2824 1 16.1985 9.77249 13.5415 -0.117641 -0.015461 0.542459 0.00145763 -6.63472 0
2828 1 19.4322 9.77238 13.5414 0.0186271 0.583756 -0.103106 0.00166284 -6.63472 0
2825 1 19.4321 6.03854 10.9574 -1.06268 -0.501517 -0.370417 0.00717619 -6.63462 0
2826 1 21.0491 8.83898 10.9574 -0.841891 -0.403361 0.178973 0.00427121 -6.63468 0
5505 1 25.8998 6.03838 10.9574 0.69088 0.444435 -1.15861 0.00953608 -6.63473 0
2829 1 22.666 6.03846 10.9574 0.331019 0.480208 0.330446 0.00212432 -6.63471 0
2830 1 24.2829 8.83893 10.9573 0.0301136 0.28545 -0.361843 0.00100843 -6.63471 0
5508 1 25.8997 9.77239 13.5413 0.153214 -0.637877 0.24821 0.00232571 -6.6347 0
2827 1 21.049 6.97188 13.5414 0.623882 -0.322185 0.410244 0.00312635 -6.63471 0
2831 1 24.2828 6.97188 13.5414 -0.454581 -0.436579 -0.817907 0.00504038 -6.6347 0
2832 1 22.6659 9.77238 13.5414 -0.228197 -0.839337 0.290474 0.0039754 -6.63471 0
2846 1 24.2829 14.4399 10.9573 -1.04404 -0.27588 -0.350973 0.00177896 -6.63471 0
2842 1 21.0492 14.4399 10.9573 -1.59484 -0.400711 0.4062 0.00680669 -6.63472 0
2845 1 22.666 11.6394 10.9573 -0.265538 -0.425745 0.324773 0.00334904 -6.63472 0
150 1 4.88013 14.4432 10.958 -0.650525 -0.0568944 0.179727 0.00216854 -6.6346 0
146 1 1.64581 14.4436 10.958 0.287247 -0.601927 -0.0310893 0.00210742 -6.63435 0
152 1 3.26302 15.3755 13.5424 0.723391 -0.326366 -0.336837 0.00351369 -6.63491 0
149 1 3.26263 11.6453 10.9588 0.0556221 0.203461 0.499381 0.00138924 -6.63399 0
151 1 4.87998 12.5756 13.5432 0.110893 0.014577 0.919362 0.00405482 -6.63506 0
147 1 1.64522 12.5765 13.5434 0.551554 0.721072 1.03094 0.00892045 -6.63526 0
2841 1 19.4322 11.6394 10.9573 -0.491026 -0.208594 -0.593312 0.00553168 -6.63454 0
154 1 8.11426 14.4424 10.9576 -0.585208 -0.88395 -0.687591 0.00754777 -6.63451 0
153 1 6.497 11.6441 10.9584 -0.313962 0.205827 -0.266073 0.00100093 -6.63422 0
157 1 9.73213 11.6432 10.9578 0.694968 0.226461 0.55019 0.00395667 -6.63461 0
160 1 9.7314 15.3749 13.5419 -0.164163 0.749659 0.246107 0.00307044 -6.63477 0
156 1 6.49728 15.3752 13.5422 0.173143 -0.570001 -0.226766 0.00192073 -6.63486 0
155 1 8.11447 12.5755 13.5428 0.420906 -0.346318 0.19694 0.00158784 -6.63515 0
158 1 11.3484 14.4416 10.9574 -0.747574 0.53518 0.333995 0.00452331 -6.63473 0
2834 1 14.5817 14.4402 10.9573 -0.630667 -0.0177555 0.173755 0.00202447 -6.63481 0
2835 1 14.582 12.5735 13.5415 -0.631017 0.313722 0.951806 0.0066303 -6.6346 0
2833 1 12.9647 11.6398 10.9573 -0.0867153 -0.381067 -0.0707699 0.000745693 -6.63503 0
2836 1 12.9653 15.3745 13.5416 0.346994 0.255212 -0.0268423 0.000880509 -6.63463 0
159 1 11.3489 12.575 13.5422 -0.0761326 0.721341 0.287975 0.00287924 -6.63449 0
2844 1 19.4324 15.3735 13.5413 -0.373702 -0.567125 0.263788 0.0025096 -6.6347 0
2840 1 16.1988 15.3738 13.5414 0.592137 0.816927 -0.327394 0.00531913 -6.63466 0
2839 1 17.8155 12.573 13.5414 0.742068 -0.113856 0.660769 0.00472851 -6.6347 0
2837 1 16.1984 11.6394 10.9573 0.306019 0.0340564 0.34604 0.00101426 -6.63477 0
2838 1 17.8154 14.44 10.9573 -1.24015 0.745384 0.499834 0.0110781 -6.63474 0
2 1 1.62535 3.24025 0.586096 -0.0710761 -0.415623 -1.50405 0.0030096 -6.6347 0
5409 1 25.9004 11.6396 0.621189 -0.506573 -0.219703 -0.298777 0.00168883 -6.6347 0
6 1 4.86372 3.23367 0.60176 0.00453469 -0.806107 -0.612401 0.0135632 -6.63471 0
9 1 6.49843 0.434308 0.619606 1.23516 0.250128 -0.508692 0.00609502 -6.63471 0
2689 1 12.9783 0.437134 0.609225 -0.916955 -0.956393 0.497787 0.00205791 -6.63471 0
2690 1 14.5853 3.2395 0.615794 0.0279985 0.596822 -0.712089 0.0214639 -6.63471 0
14 1 11.3573 3.24465 0.604131 0.385716 0.197664 -0.00609509 0.00112203 -6.63471 0
2709 1 16.2004 6.03983 0.618441 -0.225293 -0.201747 0.628354 0.00110406 -6.63471 0
2718 1 24.2838 8.83919 0.620931 1.21031 1.44564 -0.455695 0.00203181 -6.63471 0
197 1 1.64398 1.36931 18.7164 -0.430151 0.061504 -0.574685 0.00245385 -6.63418 0
199 1 4.87898 1.37052 18.7144 -0.283063 0.864961 -0.248136 0.00420665 -6.63565 0
200 1 3.26173 4.17351 18.7158 0.0919105 -0.686577 -0.727962 0.00477351 -6.63575 0
172 1 4.87868 3.23955 16.132 -1.15067 0.445538 0.141867 0.0072928 -6.6392 0
226 1 1.64476 3.23823 21.2973 0.632177 -0.585926 -0.214488 0.0037297 -6.63503 0
171 1 3.26059 0.436809 16.1298 0.846746 -0.56067 0.837137 0.00818837 -6.63726 0
170 1 1.63458 3.23914 16.1476 -0.248452 1.23044 2.58102 0.0389408 -6.63044 0
202 1 6.49669 4.17319 18.7154 -0.134755 0.14568 -1.11955 0.00611137 -6.63564 0
201 1 8.11358 1.36901 18.7163 -1.02468 -0.221159 0.555808 0.00665519 -6.63393 0
204 1 9.73453 4.17338 18.7181 0.702505 0.326987 -0.558299 0.00431197 -6.63486 0
173 1 6.49528 0.436061 16.1287 0.398079 -0.395861 -0.455936 0.00247264 -6.63808 0
174 1 8.1222 3.23779 16.1462 0.344471 0.0272963 0.751112 0.0032315 -6.63025 0
175 1 9.73326 0.437521 16.1352 0.00122733 -1.15081 0.736864 0.00882754 -6.63225 0
203 1 11.3497 1.3709 18.7146 0.397727 0.180017 -1.00647 0.00568973 -6.63543 0
2886 1 12.9665 4.17196 18.7119 0.570367 0.350869 -0.163197 0.00224578 -6.6345 0
2885 1 14.5826 1.37089 18.711 0.792592 0.296333 0.263638 0.00371342 -6.63465 0
2858 1 14.5821 3.23756 16.1261 -0.558963 -0.428261 -0.224675 0.00258268 -6.6346 0
2857 1 12.9658 0.437201 16.1274 0.3408 0.354557 -0.582076 0.00274502 -6.6354 0
2914 1 14.5827 3.23773 21.2952 0.253716 -0.349196 0.11611 0.000944484 -6.63465 0
176 1 11.3505 3.23802 16.129 -0.413481 -0.127347 -0.113225 0.000945487 -6.63431 0
2887 1 17.8159 1.37072 18.7099 0.310328 -0.176779 -0.464856 0.00162453 -6.6347 0
2888 1 16.1992 4.17145 18.7101 -0.423583 -0.29439 -0.226528 0.00150047 -6.63467 0
2890 1 19.4325 4.1713 18.7096 0.137309 -0.646739 0.0244835 0.00206928 -6.6347 0
2860 1 17.8155 3.23767 16.1256 0.247795 -0.114064 -0.377156 0.00102423 -6.63469 0
2918 1 17.8159 3.23764 21.294 -0.354924 0.25146 0.679544 0.00307742 -6.6347 0
2917 1 16.1993 0.436922 21.2946 0.308667 0.409684 0.625755 0.00309493 -6.63469 0
2921 1 19.4327 0.436975 21.2938 0.803105 0.344108 -0.297413 0.00402695 -6.63472 0
2862 1 21.0491 3.2377 16.1255 0.765595 0.0889652 -0.538847 0.0041809 -6.63472 0
5545 1 25.8997 0.437087 16.1255 -0.240736 -0.261284 0.467726 0.00163089 -6.63473 0
2889 1 21.0494 1.37069 18.7096 0.782683 -0.388552 0.281728 0.00398486 -6.6347 0
2891 1 24.2829 1.37069 18.7095 0.267636 -0.12461 -0.772504 0.00323313 -6.6347 0
2892 1 22.6661 4.17127 18.7094 -1.03942 -0.616528 0.686204 0.00913031 -6.6347 0
5574 1 25.8996 4.17127 18.7094 -0.111453 -1.38512 0.771875 0.011945 -6.6347 0
2925 1 22.6662 0.437003 21.2936 0.236846 -0.0170244 0.126341 0.000342015 -6.63472 0
2922 1 21.0494 3.23762 21.2936 -0.238422 0.136427 0.37147 0.00100904 -6.63471 0
2926 1 24.2829 3.23762 21.2934 0.498089 -1.11427 0.686971 0.00927329 -6.63472 0
5601 1 25.8997 0.437015 21.2935 -0.391247 -0.63973 -0.514932 0.00391181 -6.63472 0
179 1 3.25944 6.05458 16.1505 1.15641 0.37328 0.763731 0.00973792 -6.63251 0
205 1 1.64123 6.97729 18.7202 0.576328 -0.38469 1.26343 0.0098158 -6.63425 0
207 1 4.87957 6.9787 18.7229 -1.38257 -0.161581 0.497145 0.0103281 -6.63321 0
208 1 3.26156 9.77749 18.7158 0.288823 0.402855 -1.07051 0.00657906 -6.63529 0
180 1 4.8796 8.84882 16.1341 0.147697 -0.358738 0.32501 0.00121086 -6.63261 0
178 1 1.64317 8.8466 16.1321 -0.867441 0.44242 1.09674 0.0101687 -6.63389 0
210 1 6.49807 9.77714 18.7155 -0.260968 -0.285335 -0.794289 0.00368929 -6.63527 0
209 1 8.11774 6.97655 18.7193 0.213892 0.367044 -0.223192 0.00108864 -6.63424 0
212 1 9.73286 9.7754 18.713 -0.32234 -0.11021 0.30669 0.000993254 -6.63439 0
183 1 9.73399 6.04186 16.1326 0.656299 0.070354 -0.470894 0.00310785 -6.63766 0
182 1 8.11579 8.84528 16.1311 -0.146821 -0.332061 -1.1176 0.00652774 -6.63405 0
181 1 6.49882 6.0537 16.1498 -1.03023 -0.161733 0.215 0.00535965 -6.63263 0
2865 1 12.965 6.0388 16.1266 -0.077698 -0.174287 -0.2078 0.000376268 -6.63505 0
2866 1 14.5817 8.83918 16.1259 -0.150453 -0.282547 -0.659881 0.0025429 -6.63482 0
211 1 11.3504 6.97389 18.7133 0.114348 -0.17323 -0.123582 0.000275872 -6.63404 0
2894 1 12.966 9.77373 18.7109 0.39457 0.106221 0.131248 0.00087075 -6.63451 0
2893 1 14.5827 6.97244 18.7105 -0.162184 -0.936141 -0.594165 0.00593611 -6.63457 0
2930 1 14.5823 8.83939 21.2946 -0.547494 -0.0856286 -0.406127 0.00223141 -6.63483 0
184 1 11.3486 8.84045 16.1274 -0.628758 -0.160696 -0.334913 0.00252122 -6.63518 0
2868 1 17.8153 8.8389 16.1255 -0.355743 -0.355676 0.392352 0.00192402 -6.63474 0
2895 1 17.8158 6.972 18.7097 0.689294 0.0282756 0.112623 0.00230983 -6.63468 0
2896 1 16.1991 9.77283 18.7099 0.669424 0.946307 -0.388181 0.00706413 -6.63465 0
2898 1 19.4325 9.7725 18.7095 -0.190221 -0.45701 -0.225471 0.00139872 -6.63469 0
2869 1 19.4322 6.0383 16.1255 -0.0661477 -0.88226 0.206747 0.00390244 -6.63472 0
2867 1 16.1985 6.03837 16.1258 0.644738 0.262156 -0.461512 0.00329688 -6.63481 0
2872 1 24.2828 8.83882 16.1254 0.490614 0.543279 -0.615335 0.00432312 -6.63472 0
2897 1 21.0492 6.97186 18.7095 0.474578 -0.530879 -0.760158 0.00512869 -6.6347 0
2899 1 24.2828 6.97183 18.7094 -0.0976578 0.0625424 0.373028 0.000721387 -6.6347 0
2900 1 22.666 9.77239 18.7094 -0.713187 -0.515752 0.450169 0.00461999 -6.6347 0
5582 1 25.8997 9.77237 18.7093 0.145152 0.468883 0.929776 0.00522563 -6.6347 0
2941 1 22.6661 6.03823 21.2934 0.969945 0.0292597 0.281795 0.00482689 -6.63472 0
5617 1 25.8997 6.03822 21.2934 -0.0236769 -0.599999 0.441575 0.00262627 -6.63472 0
188 1 4.8801 14.4431 16.127 -0.222204 -0.145539 0.547625 0.00175124 -6.63456 0
213 1 1.64512 12.576 18.7122 0.624029 0.0749619 0.27413 0.0022227 -6.63487 0
215 1 4.88003 12.5758 18.7122 -0.670355 -0.0674794 -0.215103 0.00236462 -6.63503 0
216 1 3.26297 15.3754 18.711 -0.6208 -0.0995542 0.502664 0.00306321 -6.63485 0
261 1 3.2627 11.6429 21.2972 -1.04559 0.334056 -0.627055 0.00755457 -6.63446 0
187 1 3.26221 11.6447 16.1286 0.151616 -0.129258 0.377142 0.000860051 -6.63432 0
189 1 6.49757 11.6441 16.1282 0.550836 0.163432 -0.788402 0.00449906 -6.63438 0
190 1 8.11446 14.4426 16.1267 -0.131788 0.578412 0.0568529 0.00167897 -6.63459 0
217 1 8.1148 12.5755 18.7118 -0.0134357 -0.0131099 0.194688 0.000180848 -6.63483 0
218 1 6.49732 15.3753 18.7108 -0.506593 -0.577051 -0.83584 0.00609002 -6.63483 0
220 1 9.73153 15.375 18.7105 -0.382074 -0.476883 -0.381317 0.00245255 -6.63476 0
191 1 9.73192 11.6426 16.1275 -0.245742 -0.37574 0.0897938 0.000991007 -6.63462 0
219 1 11.3489 12.5747 18.7109 0.860577 0.0448682 -0.898556 0.00732743 -6.6346 0
2902 1 12.9654 15.3745 18.71 -0.0312263 0.190818 -0.715004 0.00259351 -6.63465 0
2901 1 14.5823 12.5737 18.71 0.637086 0.881581 -0.299557 0.00601696 -6.63462 0